HEADER
"PSFversion" "1.00"
"Log Generator" "drlLog rev. 1.0"
"Log Time Stamp" "Tue Jul 14 21:35:12 2015"
"simulator" "spectre"
"version" "10.1.1.128.isr9"
"date" "9:35:12 PM, Tue Jul 14, 2015"
"design" "// Generated by PySpectre"
"signalNameType" "spectre"
"measdgt" 0
"ingold" 2
"sst2usecolon" 0
TYPE
"analysisInst" STRUCT(
"analysisType" STRING *
"dataFile" STRING *
"format" STRING *
"parent" STRING *
"sweepVariable" ARRAY ( * ) STRING *
"description" STRING *
)
VALUE
"dcOp-dc" "analysisInst" (
"dc"
"dcOp.dc"
"PSF"
""
()
"DC Analysis `dcOp'"
) PROP(
"data_type" "scalar"
)

"dc-dc" "analysisInst" (
"dc"
"dc.dc"
"PSF"
""
("VSWEEP")
"DC Analysis `dc': VSWEEP = (0 -> 2)"
) PROP(
"data_type" "scalar"
)

"ac-ac" "analysisInst" (
"ac"
"ac.ac"
"PSF"
""
("freq")
"AC Analysis `ac': freq = (1 Hz -> 1 THz)"
) PROP(
"data_type" "swept_scalar"
)

"tran-tran" "analysisInst" (
"tran"
"tran.tran"
"PSF"
""
("time")
"Transient Analysis `tran': time = (0 s -> 10 ns)"
) PROP(
"data_type" "swept_scalar"
)

END
