HEADER
"PSFversion" "1.00"
"simulator" "spectre"
"version" "10.1.1.128.isr9"
"date" "7:26:28 PM, Fri May 15, 2015"
"design" "// Generated by PySpectre"
"analysis type" "ac"
"analysis name" "ac"
"analysis description" "AC Analysis `ac': freq = (1 Hz -> 1 THz)"
"xVecSorted" "ascending"
"tolerance.relative" 0.00100000
"start" 1.00000
"stop" 1.00000e+12
"operating point producer" "ac"
TYPE
"sweep" FLOAT DOUBLE PROP(
"key" "sweep"
)
"V" COMPLEX DOUBLE PROP(
"units" "V"
"key" "node"
"tolerance" 1.00000e-06
)
"I" COMPLEX DOUBLE PROP(
"units" "A"
"key" "branch"
"tolerance" 1.00000e-12
)
"MMF" COMPLEX DOUBLE PROP(
"units" "A*turn"
"key" "node"
"tolerance" 1.00000e-12
)
"Wb" COMPLEX DOUBLE PROP(
"units" "Wb"
"key" "node"
"tolerance" 1.00000e-09
)
"Temp" COMPLEX DOUBLE PROP(
"units" "C"
"key" "node"
"tolerance" 0.000100000
)
"Pwr" COMPLEX DOUBLE PROP(
"units" "W"
"key" "node"
"tolerance" 1.00000e-09
)
"U" COMPLEX DOUBLE PROP(
"units" ""
"key" "node"
"tolerance" 1.00000e-06
)
"V/Sec" COMPLEX DOUBLE PROP(
"units" "V/s"
"key" "node"
"tolerance" 0.000100000
)
"I/Sec" COMPLEX DOUBLE PROP(
"units" "A/s"
"key" "node"
"tolerance" 1.00000e-06
)
"1/Sec" COMPLEX DOUBLE PROP(
"units" "1/s"
"key" "node"
"tolerance" 0.000100000
)
"HOD" COMPLEX DOUBLE PROP(
"units" ""
"key" "node"
"tolerance" 0.0100000
)
SWEEP
"freq" "sweep" PROP(
"sweep_direction" 0
"units" "Hz"
"plot" 0
"grid" 3
)
TRACE
"gnd!" "V"
"PORT1:p" "I"
"V0:p" "I"
"VG" "V"
"VI" "V"
"VNOISE" "V"
"VO1" "V"
"VO2" "V"
"I1.net7" "V"
VALUE
"freq" 1.000000000000000e+00
"gnd!" (0.00000 0.00000)
"PORT1:p" (0.00000 0.00000)
"V0:p" (-3.46945e-18 -2.70177e-11)
"VG" (0.00000 0.00000)
"VI" (1.00000 0.00000)
"VNOISE" (0.00000 0.00000)
"VO1" (1.00000 -2.70177e-08)
"VO2" (1.00000 -1.81773e-07)
"I1.net7" (1.00000 -1.74233e-07)
"freq" 1.025343931091533e+00
"gnd!" (0.00000 0.00000)
"PORT1:p" (0.00000 0.00000)
"V0:p" (-3.90313e-18 -2.77024e-11)
"VG" (0.00000 0.00000)
"VI" (1.00000 0.00000)
"VNOISE" (0.00000 0.00000)
"VO1" (1.00000 -2.77024e-08)
"VO2" (1.00000 -1.86379e-07)
"I1.net7" (1.00000 -1.78648e-07)
"freq" 1.051330177026238e+00
"gnd!" (0.00000 0.00000)
"PORT1:p" (0.00000 0.00000)
"V0:p" (-3.90313e-18 -2.84045e-11)
"VG" (0.00000 0.00000)
"VI" (1.00000 0.00000)
"VNOISE" (0.00000 0.00000)
"VO1" (1.00000 -2.84045e-08)
"VO2" (1.00000 -1.91103e-07)
"I1.net7" (1.00000 -1.83176e-07)
"freq" 1.077975016587240e+00
"gnd!" (0.00000 0.00000)
"PORT1:p" (0.00000 0.00000)
"V0:p" (-4.11997e-18 -2.91244e-11)
"VG" (0.00000 0.00000)
"VI" (1.00000 0.00000)
"VNOISE" (0.00000 0.00000)
"VO1" (1.00000 -2.91244e-08)
"VO2" (1.00000 -1.95946e-07)
"I1.net7" (1.00000 -1.87819e-07)
"freq" 1.105295141126021e+00
"gnd!" (0.00000 0.00000)
"PORT1:p" (0.00000 0.00000)
"V0:p" (-4.33681e-18 -2.98625e-11)
"VG" (0.00000 0.00000)
"VI" (1.00000 0.00000)
"VNOISE" (0.00000 0.00000)
"VO1" (1.00000 -2.98625e-08)
"VO2" (1.00000 -2.00912e-07)
"I1.net7" (1.00000 -1.92579e-07)
"freq" 1.133307665018525e+00
"gnd!" (0.00000 0.00000)
"PORT1:p" (0.00000 0.00000)
"V0:p" (-4.55365e-18 -3.06194e-11)
"VG" (0.00000 0.00000)
"VI" (1.00000 0.00000)
"VNOISE" (0.00000 0.00000)
"VO1" (1.00000 -3.06194e-08)
"VO2" (1.00000 -2.06004e-07)
"I1.net7" (1.00000 -1.97459e-07)
"freq" 1.162030136386261e+00
"gnd!" (0.00000 0.00000)
"PORT1:p" (0.00000 0.00000)
"V0:p" (-4.98733e-18 -3.13954e-11)
"VG" (0.00000 0.00000)
"VI" (1.00000 0.00000)
"VNOISE" (0.00000 0.00000)
"VO1" (1.00000 -3.13954e-08)
"VO2" (1.00000 -2.11225e-07)
"I1.net7" (1.00000 -2.02464e-07)
"freq" 1.191480548089119e+00
"gnd!" (0.00000 0.00000)
"PORT1:p" (0.00000 0.00000)
"V0:p" (-5.20417e-18 -3.21911e-11)
"VG" (0.00000 0.00000)
"VI" (1.00000 0.00000)
"VNOISE" (0.00000 0.00000)
"VO1" (1.00000 -3.21911e-08)
"VO2" (1.00000 -2.16578e-07)
"I1.net7" (1.00000 -2.07595e-07)
"freq" 1.221677348996791e+00
"gnd!" (0.00000 0.00000)
"PORT1:p" (0.00000 0.00000)
"V0:p" (-5.42101e-18 -3.30069e-11)
"VG" (0.00000 0.00000)
"VI" (1.00000 0.00000)
"VNOISE" (0.00000 0.00000)
"VO1" (1.00000 -3.30069e-08)
"VO2" (1.00000 -2.22067e-07)
"I1.net7" (1.00000 -2.12856e-07)
"freq" 1.252639455545852e+00
"gnd!" (0.00000 0.00000)
"PORT1:p" (0.00000 0.00000)
"V0:p" (-5.63785e-18 -3.38434e-11)
"VG" (0.00000 0.00000)
"VI" (1.00000 0.00000)
"VNOISE" (0.00000 0.00000)
"VO1" (1.00000 -3.38434e-08)
"VO2" (1.00000 -2.27695e-07)
"I1.net7" (1.00000 -2.18251e-07)
"freq" 1.284386263589742e+00
"gnd!" (0.00000 0.00000)
"PORT1:p" (0.00000 0.00000)
"V0:p" (-6.07153e-18 -3.47012e-11)
"VG" (0.00000 0.00000)
"VI" (1.00000 0.00000)
"VNOISE" (0.00000 0.00000)
"VO1" (1.00000 -3.47012e-08)
"VO2" (1.00000 -2.33466e-07)
"I1.net7" (1.00000 -2.23782e-07)
"freq" 1.316937660549072e+00
"gnd!" (0.00000 0.00000)
"PORT1:p" (0.00000 0.00000)
"V0:p" (-6.28837e-18 -3.55806e-11)
"VG" (0.00000 0.00000)
"VI" (1.00000 0.00000)
"VNOISE" (0.00000 0.00000)
"VO1" (1.00000 -3.55806e-08)
"VO2" (1.00000 -2.39383e-07)
"I1.net7" (1.00000 -2.29454e-07)
"freq" 1.350314037869872e+00
"gnd!" (0.00000 0.00000)
"PORT1:p" (0.00000 0.00000)
"V0:p" (-6.72205e-18 -3.64824e-11)
"VG" (0.00000 0.00000)
"VI" (1.00000 0.00000)
"VNOISE" (0.00000 0.00000)
"VO1" (1.00000 -3.64824e-08)
"VO2" (1.00000 -2.45450e-07)
"I1.net7" (1.00000 -2.35269e-07)
"freq" 1.384536303797576e+00
"gnd!" (0.00000 0.00000)
"PORT1:p" (0.00000 0.00000)
"V0:p" (-7.15573e-18 -3.74070e-11)
"VG" (0.00000 0.00000)
"VI" (1.00000 0.00000)
"VNOISE" (0.00000 0.00000)
"VO1" (1.00000 -3.74070e-08)
"VO2" (1.00000 -2.51671e-07)
"I1.net7" (1.00000 -2.41232e-07)
"freq" 1.419625896474747e+00
"gnd!" (0.00000 0.00000)
"PORT1:p" (0.00000 0.00000)
"V0:p" (-7.58942e-18 -3.83550e-11)
"VG" (0.00000 0.00000)
"VI" (1.00000 0.00000)
"VNOISE" (0.00000 0.00000)
"VO1" (1.00000 -3.83550e-08)
"VO2" (1.00000 -2.58049e-07)
"I1.net7" (1.00000 -2.47345e-07)
"freq" 1.455604797370759e+00
"gnd!" (0.00000 0.00000)
"PORT1:p" (0.00000 0.00000)
"V0:p" (-8.02310e-18 -3.93271e-11)
"VG" (0.00000 0.00000)
"VI" (1.00000 0.00000)
"VNOISE" (0.00000 0.00000)
"VO1" (1.00000 -3.93271e-08)
"VO2" (1.00000 -2.64589e-07)
"I1.net7" (1.00000 -2.53614e-07)
"freq" 1.492495545051828e+00
"gnd!" (0.00000 0.00000)
"PORT1:p" (0.00000 0.00000)
"V0:p" (-8.45678e-18 -4.03238e-11)
"VG" (0.00000 0.00000)
"VI" (1.00000 0.00000)
"VNOISE" (0.00000 0.00000)
"VO1" (1.00000 -4.03238e-08)
"VO2" (1.00000 -2.71295e-07)
"I1.net7" (1.00000 -2.60042e-07)
"freq" 1.530321249300041e+00
"gnd!" (0.00000 0.00000)
"PORT1:p" (0.00000 0.00000)
"V0:p" (-8.89046e-18 -4.13458e-11)
"VG" (0.00000 0.00000)
"VI" (1.00000 0.00000)
"VNOISE" (0.00000 0.00000)
"VO1" (1.00000 -4.13458e-08)
"VO2" (1.00000 -2.78170e-07)
"I1.net7" (1.00000 -2.66632e-07)
"freq" 1.569105605590210e+00
"gnd!" (0.00000 0.00000)
"PORT1:p" (0.00000 0.00000)
"V0:p" (-9.32414e-18 -4.23936e-11)
"VG" (0.00000 0.00000)
"VI" (1.00000 0.00000)
"VNOISE" (0.00000 0.00000)
"VO1" (1.00000 -4.23936e-08)
"VO2" (1.00000 -2.85220e-07)
"I1.net7" (1.00000 -2.73390e-07)
"freq" 1.608872909933626e+00
"gnd!" (0.00000 0.00000)
"PORT1:p" (0.00000 0.00000)
"V0:p" (-9.75782e-18 -4.34680e-11)
"VG" (0.00000 0.00000)
"VI" (1.00000 0.00000)
"VNOISE" (0.00000 0.00000)
"VO1" (1.00000 -4.34680e-08)
"VO2" (1.00000 -2.92449e-07)
"I1.net7" (1.00000 -2.80318e-07)
"freq" 1.649648074098018e+00
"gnd!" (0.00000 0.00000)
"PORT1:p" (0.00000 0.00000)
"V0:p" (-1.01915e-17 -4.45697e-11)
"VG" (0.00000 0.00000)
"VI" (1.00000 0.00000)
"VNOISE" (0.00000 0.00000)
"VO1" (1.00000 -4.45697e-08)
"VO2" (1.00000 -2.99861e-07)
"I1.net7" (1.00000 -2.87423e-07)
"freq" 1.691456641213238e+00
"gnd!" (0.00000 0.00000)
"PORT1:p" (0.00000 0.00000)
"V0:p" (-1.08420e-17 -4.56993e-11)
"VG" (0.00000 0.00000)
"VI" (1.00000 0.00000)
"VNOISE" (0.00000 0.00000)
"VO1" (1.00000 -4.56993e-08)
"VO2" (1.00000 -3.07460e-07)
"I1.net7" (1.00000 -2.94707e-07)
"freq" 1.734324801772462e+00
"gnd!" (0.00000 0.00000)
"PORT1:p" (0.00000 0.00000)
"V0:p" (-1.12757e-17 -4.68575e-11)
"VG" (0.00000 0.00000)
"VI" (1.00000 0.00000)
"VNOISE" (0.00000 0.00000)
"VO1" (1.00000 -4.68575e-08)
"VO2" (1.00000 -3.15253e-07)
"I1.net7" (1.00000 -3.02176e-07)
"freq" 1.778279410038920e+00
"gnd!" (0.00000 0.00000)
"PORT1:p" (0.00000 0.00000)
"V0:p" (-1.19262e-17 -4.80450e-11)
"VG" (0.00000 0.00000)
"VI" (1.00000 0.00000)
"VNOISE" (0.00000 0.00000)
"VO1" (1.00000 -4.80450e-08)
"VO2" (1.00000 -3.23242e-07)
"I1.net7" (1.00000 -3.09834e-07)
"freq" 1.823348000868438e+00
"gnd!" (0.00000 0.00000)
"PORT1:p" (0.00000 0.00000)
"V0:p" (-1.25767e-17 -4.92627e-11)
"VG" (0.00000 0.00000)
"VI" (1.00000 0.00000)
"VNOISE" (0.00000 0.00000)
"VO1" (1.00000 -4.92627e-08)
"VO2" (1.00000 -3.31435e-07)
"I1.net7" (1.00000 -3.17687e-07)
"freq" 1.869558806958332e+00
"gnd!" (0.00000 0.00000)
"PORT1:p" (0.00000 0.00000)
"V0:p" (-1.32273e-17 -5.05112e-11)
"VG" (0.00000 0.00000)
"VI" (1.00000 0.00000)
"VNOISE" (0.00000 0.00000)
"VO1" (1.00000 -5.05112e-08)
"VO2" (1.00000 -3.39834e-07)
"I1.net7" (1.00000 -3.25738e-07)
"freq" 1.916940776533453e+00
"gnd!" (0.00000 0.00000)
"PORT1:p" (0.00000 0.00000)
"V0:p" (-1.38778e-17 -5.17913e-11)
"VG" (0.00000 0.00000)
"VI" (1.00000 0.00000)
"VNOISE" (0.00000 0.00000)
"VO1" (1.00000 -5.17913e-08)
"VO2" (1.00000 -3.48447e-07)
"I1.net7" (1.00000 -3.33994e-07)
"freq" 1.965523591480466e+00
"gnd!" (0.00000 0.00000)
"PORT1:p" (0.00000 0.00000)
"V0:p" (-1.45283e-17 -5.31039e-11)
"VG" (0.00000 0.00000)
"VI" (1.00000 0.00000)
"VNOISE" (0.00000 0.00000)
"VO1" (1.00000 -5.31039e-08)
"VO2" (1.00000 -3.57278e-07)
"I1.net7" (1.00000 -3.42459e-07)
"freq" 2.015337685941729e+00
"gnd!" (0.00000 0.00000)
"PORT1:p" (0.00000 0.00000)
"V0:p" (-1.53957e-17 -5.44498e-11)
"VG" (0.00000 0.00000)
"VI" (1.00000 0.00000)
"VNOISE" (0.00000 0.00000)
"VO1" (1.00000 -5.44498e-08)
"VO2" (1.00000 -3.66333e-07)
"I1.net7" (1.00000 -3.51138e-07)
"freq" 2.066414265380406e+00
"gnd!" (0.00000 0.00000)
"PORT1:p" (0.00000 0.00000)
"V0:p" (-1.60462e-17 -5.58298e-11)
"VG" (0.00000 0.00000)
"VI" (1.00000 0.00000)
"VNOISE" (0.00000 0.00000)
"VO1" (1.00000 -5.58298e-08)
"VO2" (1.00000 -3.75617e-07)
"I1.net7" (1.00000 -3.60037e-07)
"freq" 2.118785326128767e+00
"gnd!" (0.00000 0.00000)
"PORT1:p" (0.00000 0.00000)
"V0:p" (-1.69136e-17 -5.72447e-11)
"VG" (0.00000 0.00000)
"VI" (1.00000 0.00000)
"VNOISE" (0.00000 0.00000)
"VO1" (1.00000 -5.72447e-08)
"VO2" (1.00000 -3.85137e-07)
"I1.net7" (1.00000 -3.69162e-07)
"freq" 2.172483675431926e+00
"gnd!" (0.00000 0.00000)
"PORT1:p" (0.00000 0.00000)
"V0:p" (-1.77809e-17 -5.86955e-11)
"VG" (0.00000 0.00000)
"VI" (1.00000 0.00000)
"VNOISE" (0.00000 0.00000)
"VO1" (1.00000 -5.86955e-08)
"VO2" (1.00000 -3.94898e-07)
"I1.net7" (1.00000 -3.78518e-07)
"freq" 2.227542951999553e+00
"gnd!" (0.00000 0.00000)
"PORT1:p" (0.00000 0.00000)
"V0:p" (-1.88651e-17 -6.01831e-11)
"VG" (0.00000 0.00000)
"VI" (1.00000 0.00000)
"VNOISE" (0.00000 0.00000)
"VO1" (1.00000 -6.01831e-08)
"VO2" (1.00000 -4.04906e-07)
"I1.net7" (1.00000 -3.88111e-07)
"freq" 2.283997647078459e+00
"gnd!" (0.00000 0.00000)
"PORT1:p" (0.00000 0.00000)
"V0:p" (-1.97325e-17 -6.17084e-11)
"VG" (0.00000 0.00000)
"VI" (1.00000 0.00000)
"VNOISE" (0.00000 0.00000)
"VO1" (1.00000 -6.17084e-08)
"VO2" (1.00000 -4.15168e-07)
"I1.net7" (1.00000 -3.97947e-07)
"freq" 2.341883126059239e+00
"gnd!" (0.00000 0.00000)
"PORT1:p" (0.00000 0.00000)
"V0:p" (-2.05998e-17 -6.32723e-11)
"VG" (0.00000 0.00000)
"VI" (1.00000 0.00000)
"VNOISE" (0.00000 0.00000)
"VO1" (1.00000 -6.32723e-08)
"VO2" (1.00000 -4.25690e-07)
"I1.net7" (1.00000 -4.08033e-07)
"freq" 2.401235650630508e+00
"gnd!" (0.00000 0.00000)
"PORT1:p" (0.00000 0.00000)
"V0:p" (-2.19009e-17 -6.48759e-11)
"VG" (0.00000 0.00000)
"VI" (1.00000 0.00000)
"VNOISE" (0.00000 0.00000)
"VO1" (1.00000 -6.48759e-08)
"VO2" (1.00000 -4.36479e-07)
"I1.net7" (1.00000 -4.18374e-07)
"freq" 2.462092401494619e+00
"gnd!" (0.00000 0.00000)
"PORT1:p" (0.00000 0.00000)
"V0:p" (-2.29851e-17 -6.65201e-11)
"VG" (0.00000 0.00000)
"VI" (1.00000 0.00000)
"VNOISE" (0.00000 0.00000)
"VO1" (1.00000 -6.65201e-08)
"VO2" (1.00000 -4.47541e-07)
"I1.net7" (1.00000 -4.28977e-07)
"freq" 2.524491501659086e+00
"gnd!" (0.00000 0.00000)
"PORT1:p" (0.00000 0.00000)
"V0:p" (-2.42861e-17 -6.82059e-11)
"VG" (0.00000 0.00000)
"VI" (1.00000 0.00000)
"VNOISE" (0.00000 0.00000)
"VO1" (1.00000 -6.82059e-08)
"VO2" (1.00000 -4.58883e-07)
"I1.net7" (1.00000 -4.39849e-07)
"freq" 2.588472040318294e+00
"gnd!" (0.00000 0.00000)
"PORT1:p" (0.00000 0.00000)
"V0:p" (-2.55872e-17 -6.99346e-11)
"VG" (0.00000 0.00000)
"VI" (1.00000 0.00000)
"VNOISE" (0.00000 0.00000)
"VO1" (1.00000 -6.99346e-08)
"VO2" (1.00000 -4.70513e-07)
"I1.net7" (1.00000 -4.50997e-07)
"freq" 2.654074097340480e+00
"gnd!" (0.00000 0.00000)
"PORT1:p" (0.00000 0.00000)
"V0:p" (-2.68882e-17 -7.17070e-11)
"VG" (0.00000 0.00000)
"VI" (1.00000 0.00000)
"VNOISE" (0.00000 0.00000)
"VO1" (1.00000 -7.17070e-08)
"VO2" (1.00000 -4.82438e-07)
"I1.net7" (1.00000 -4.62427e-07)
"freq" 2.721338768375300e+00
"gnd!" (0.00000 0.00000)
"PORT1:p" (0.00000 0.00000)
"V0:p" (-2.81893e-17 -7.35243e-11)
"VG" (0.00000 0.00000)
"VI" (1.00000 0.00000)
"VNOISE" (0.00000 0.00000)
"VO1" (1.00000 -7.35243e-08)
"VO2" (1.00000 -4.94665e-07)
"I1.net7" (1.00000 -4.74146e-07)
"freq" 2.790308190597720e+00
"gnd!" (0.00000 0.00000)
"PORT1:p" (0.00000 0.00000)
"V0:p" (-2.97071e-17 -7.53877e-11)
"VG" (0.00000 0.00000)
"VI" (1.00000 0.00000)
"VNOISE" (0.00000 0.00000)
"VO1" (1.00000 -7.53877e-08)
"VO2" (1.00000 -5.07201e-07)
"I1.net7" (1.00000 -4.86163e-07)
"freq" 2.861025569104369e+00
"gnd!" (0.00000 0.00000)
"PORT1:p" (0.00000 0.00000)
"V0:p" (-3.12250e-17 -7.72983e-11)
"VG" (0.00000 0.00000)
"VI" (1.00000 0.00000)
"VNOISE" (0.00000 0.00000)
"VO1" (1.00000 -7.72983e-08)
"VO2" (1.00000 -5.20056e-07)
"I1.net7" (1.00000 -4.98484e-07)
"freq" 2.933535203978864e+00
"gnd!" (0.00000 0.00000)
"PORT1:p" (0.00000 0.00000)
"V0:p" (-3.27429e-17 -7.92574e-11)
"VG" (0.00000 0.00000)
"VI" (1.00000 0.00000)
"VNOISE" (0.00000 0.00000)
"VO1" (1.00000 -7.92574e-08)
"VO2" (1.00000 -5.33236e-07)
"I1.net7" (1.00000 -5.11118e-07)
"freq" 3.007882518043090e+00
"gnd!" (0.00000 0.00000)
"PORT1:p" (0.00000 0.00000)
"V0:p" (-3.42608e-17 -8.12661e-11)
"VG" (0.00000 0.00000)
"VI" (1.00000 0.00000)
"VNOISE" (0.00000 0.00000)
"VO1" (1.00000 -8.12661e-08)
"VO2" (1.00000 -5.46750e-07)
"I1.net7" (1.00000 -5.24072e-07)
"freq" 3.084114085311800e+00
"gnd!" (0.00000 0.00000)
"PORT1:p" (0.00000 0.00000)
"V0:p" (-3.62124e-17 -8.33257e-11)
"VG" (0.00000 0.00000)
"VI" (1.00000 0.00000)
"VNOISE" (0.00000 0.00000)
"VO1" (1.00000 -8.33257e-08)
"VO2" (1.00000 -5.60607e-07)
"I1.net7" (1.00000 -5.37354e-07)
"freq" 3.162277660168368e+00
"gnd!" (0.00000 0.00000)
"PORT1:p" (0.00000 0.00000)
"V0:p" (-3.83808e-17 -8.54375e-11)
"VG" (0.00000 0.00000)
"VI" (1.00000 0.00000)
"VNOISE" (0.00000 0.00000)
"VO1" (1.00000 -8.54375e-08)
"VO2" (1.00000 -5.74815e-07)
"I1.net7" (1.00000 -5.50972e-07)
"freq" 3.242422207279970e+00
"gnd!" (0.00000 0.00000)
"PORT1:p" (0.00000 0.00000)
"V0:p" (-4.01155e-17 -8.76028e-11)
"VG" (0.00000 0.00000)
"VI" (1.00000 0.00000)
"VNOISE" (0.00000 0.00000)
"VO1" (1.00000 -8.76028e-08)
"VO2" (1.00000 -5.89383e-07)
"I1.net7" (1.00000 -5.64936e-07)
"freq" 3.324597932270929e+00
"gnd!" (0.00000 0.00000)
"PORT1:p" (0.00000 0.00000)
"V0:p" (-4.22839e-17 -8.98230e-11)
"VG" (0.00000 0.00000)
"VI" (1.00000 0.00000)
"VNOISE" (0.00000 0.00000)
"VO1" (1.00000 -8.98230e-08)
"VO2" (1.00000 -6.04321e-07)
"I1.net7" (1.00000 -5.79254e-07)
"freq" 3.408856313173456e+00
"gnd!" (0.00000 0.00000)
"PORT1:p" (0.00000 0.00000)
"V0:p" (-4.44523e-17 -9.20994e-11)
"VG" (0.00000 0.00000)
"VI" (1.00000 0.00000)
"VNOISE" (0.00000 0.00000)
"VO1" (1.00000 -9.20994e-08)
"VO2" (1.00000 -6.19637e-07)
"I1.net7" (1.00000 -5.93934e-07)
"freq" 3.495250132675461e+00
"gnd!" (0.00000 0.00000)
"PORT1:p" (0.00000 0.00000)
"V0:p" (-4.66207e-17 -9.44336e-11)
"VG" (0.00000 0.00000)
"VI" (1.00000 0.00000)
"VNOISE" (0.00000 0.00000)
"VO1" (1.00000 -9.44336e-08)
"VO2" (1.00000 -6.35341e-07)
"I1.net7" (1.00000 -6.08987e-07)
"freq" 3.583833511185659e+00
"gnd!" (0.00000 0.00000)
"PORT1:p" (0.00000 0.00000)
"V0:p" (-4.90059e-17 -9.68269e-11)
"VG" (0.00000 0.00000)
"VI" (1.00000 0.00000)
"VNOISE" (0.00000 0.00000)
"VO1" (1.00000 -9.68269e-08)
"VO2" (1.00000 -6.51443e-07)
"I1.net7" (1.00000 -6.24421e-07)
"freq" 3.674661940736675e+00
"gnd!" (0.00000 0.00000)
"PORT1:p" (0.00000 0.00000)
"V0:p" (-5.16080e-17 -9.92809e-11)
"VG" (0.00000 0.00000)
"VI" (1.00000 0.00000)
"VNOISE" (0.00000 0.00000)
"VO1" (1.00000 -9.92809e-08)
"VO2" (1.00000 -6.67953e-07)
"I1.net7" (1.00000 -6.40246e-07)
"freq" 3.767792319747384e+00
"gnd!" (0.00000 0.00000)
"PORT1:p" (0.00000 0.00000)
"V0:p" (-5.44269e-17 -1.01797e-10)
"VG" (0.00000 0.00000)
"VI" (1.00000 0.00000)
"VNOISE" (0.00000 0.00000)
"VO1" (1.00000 -1.01797e-07)
"VO2" (1.00000 -6.84881e-07)
"I1.net7" (1.00000 -6.56473e-07)
"freq" 3.863282988666269e+00
"gnd!" (0.00000 0.00000)
"PORT1:p" (0.00000 0.00000)
"V0:p" (-5.70290e-17 -1.04377e-10)
"VG" (0.00000 0.00000)
"VI" (1.00000 0.00000)
"VNOISE" (0.00000 0.00000)
"VO1" (1.00000 -1.04377e-07)
"VO2" (1.00000 -7.02239e-07)
"I1.net7" (1.00000 -6.73110e-07)
"freq" 3.961193766518118e+00
"gnd!" (0.00000 0.00000)
"PORT1:p" (0.00000 0.00000)
"V0:p" (-6.02816e-17 -1.07022e-10)
"VG" (0.00000 0.00000)
"VI" (1.00000 0.00000)
"VNOISE" (0.00000 0.00000)
"VO1" (1.00000 -1.07022e-07)
"VO2" (1.00000 -7.20036e-07)
"I1.net7" (1.00000 -6.90170e-07)
"freq" 4.061585988376962e+00
"gnd!" (0.00000 0.00000)
"PORT1:p" (0.00000 0.00000)
"V0:p" (-6.31006e-17 -1.09735e-10)
"VG" (0.00000 0.00000)
"VI" (1.00000 0.00000)
"VNOISE" (0.00000 0.00000)
"VO1" (1.00000 -1.09735e-07)
"VO2" (1.00000 -7.38285e-07)
"I1.net7" (1.00000 -7.07661e-07)
"freq" 4.164522543788724e+00
"gnd!" (0.00000 0.00000)
"PORT1:p" (0.00000 0.00000)
"V0:p" (-6.63532e-17 -1.12516e-10)
"VG" (0.00000 0.00000)
"VI" (1.00000 0.00000)
"VNOISE" (0.00000 0.00000)
"VO1" (1.00000 -1.12516e-07)
"VO2" (1.00000 -7.56996e-07)
"I1.net7" (1.00000 -7.25596e-07)
"freq" 4.270067916167640e+00
"gnd!" (0.00000 0.00000)
"PORT1:p" (0.00000 0.00000)
"V0:p" (-6.98226e-17 -1.15367e-10)
"VG" (0.00000 0.00000)
"VI" (1.00000 0.00000)
"VNOISE" (0.00000 0.00000)
"VO1" (1.00000 -1.15367e-07)
"VO2" (1.00000 -7.76181e-07)
"I1.net7" (1.00000 -7.43986e-07)
"freq" 4.378288223191158e+00
"gnd!" (0.00000 0.00000)
"PORT1:p" (0.00000 0.00000)
"V0:p" (-7.35089e-17 -1.18291e-10)
"VG" (0.00000 0.00000)
"VI" (1.00000 0.00000)
"VNOISE" (0.00000 0.00000)
"VO1" (1.00000 -1.18291e-07)
"VO2" (1.00000 -7.95853e-07)
"I1.net7" (1.00000 -7.62841e-07)
"freq" 4.489251258218585e+00
"gnd!" (0.00000 0.00000)
"PORT1:p" (0.00000 0.00000)
"V0:p" (-7.71952e-17 -1.21289e-10)
"VG" (0.00000 0.00000)
"VI" (1.00000 0.00000)
"VNOISE" (0.00000 0.00000)
"VO1" (1.00000 -1.21289e-07)
"VO2" (1.00000 -8.16023e-07)
"I1.net7" (1.00000 -7.82174e-07)
"freq" 4.603026532759453e+00
"gnd!" (0.00000 0.00000)
"PORT1:p" (0.00000 0.00000)
"V0:p" (-8.10983e-17 -1.24363e-10)
"VG" (0.00000 0.00000)
"VI" (1.00000 0.00000)
"VNOISE" (0.00000 0.00000)
"VO1" (1.00000 -1.24363e-07)
"VO2" (1.00000 -8.36704e-07)
"I1.net7" (1.00000 -8.01998e-07)
"freq" 4.719685320018207e+00
"gnd!" (0.00000 0.00000)
"PORT1:p" (0.00000 0.00000)
"V0:p" (-8.54351e-17 -1.27515e-10)
"VG" (0.00000 0.00000)
"VI" (1.00000 0.00000)
"VNOISE" (0.00000 0.00000)
"VO1" (1.00000 -1.27515e-07)
"VO2" (1.00000 -8.57909e-07)
"I1.net7" (1.00000 -8.22324e-07)
"freq" 4.839300699542467e+00
"gnd!" (0.00000 0.00000)
"PORT1:p" (0.00000 0.00000)
"V0:p" (-8.97719e-17 -1.30747e-10)
"VG" (0.00000 0.00000)
"VI" (1.00000 0.00000)
"VNOISE" (0.00000 0.00000)
"VO1" (1.00000 -1.30747e-07)
"VO2" (1.00000 -8.79652e-07)
"I1.net7" (1.00000 -8.43165e-07)
"freq" 4.961947603002878e+00
"gnd!" (0.00000 0.00000)
"PORT1:p" (0.00000 0.00000)
"V0:p" (-9.43256e-17 -1.34060e-10)
"VG" (0.00000 0.00000)
"VI" (1.00000 0.00000)
"VNOISE" (0.00000 0.00000)
"VO1" (1.00000 -1.34060e-07)
"VO2" (1.00000 -9.01946e-07)
"I1.net7" (1.00000 -8.64534e-07)
"freq" 5.087702861133180e+00
"gnd!" (0.00000 0.00000)
"PORT1:p" (0.00000 0.00000)
"V0:p" (-9.90961e-17 -1.37458e-10)
"VG" (0.00000 0.00000)
"VI" (1.00000 0.00000)
"VNOISE" (0.00000 0.00000)
"VO1" (1.00000 -1.37458e-07)
"VO2" (1.00000 -9.24805e-07)
"I1.net7" (1.00000 -8.86444e-07)
"freq" 5.216645251859934e+00
"gnd!" (0.00000 0.00000)
"PORT1:p" (0.00000 0.00000)
"V0:p" (-1.04300e-16 -1.40942e-10)
"VG" (0.00000 0.00000)
"VI" (1.00000 0.00000)
"VNOISE" (0.00000 0.00000)
"VO1" (1.00000 -1.40942e-07)
"VO2" (1.00000 -9.48243e-07)
"I1.net7" (1.00000 -9.08910e-07)
"freq" 5.348855549652045e+00
"gnd!" (0.00000 0.00000)
"PORT1:p" (0.00000 0.00000)
"V0:p" (-1.09721e-16 -1.44514e-10)
"VG" (0.00000 0.00000)
"VI" (1.00000 0.00000)
"VNOISE" (0.00000 0.00000)
"VO1" (1.00000 -1.44514e-07)
"VO2" (1.00000 -9.72275e-07)
"I1.net7" (1.00000 -9.31946e-07)
"freq" 5.484416576120990e+00
"gnd!" (0.00000 0.00000)
"PORT1:p" (0.00000 0.00000)
"V0:p" (-1.15142e-16 -1.48176e-10)
"VG" (0.00000 0.00000)
"VI" (1.00000 0.00000)
"VNOISE" (0.00000 0.00000)
"VO1" (1.00000 -1.48176e-07)
"VO2" (1.00000 -9.96916e-07)
"I1.net7" (1.00000 -9.55565e-07)
"freq" 5.623413251903461e+00
"gnd!" (0.00000 0.00000)
"PORT1:p" (0.00000 0.00000)
"V0:p" (-1.20997e-16 -1.51932e-10)
"VG" (0.00000 0.00000)
"VI" (1.00000 0.00000)
"VNOISE" (0.00000 0.00000)
"VO1" (1.00000 -1.51932e-07)
"VO2" (1.00000 -1.02218e-06)
"I1.net7" (1.00000 -9.79783e-07)
"freq" 5.765932649858915e+00
"gnd!" (0.00000 0.00000)
"PORT1:p" (0.00000 0.00000)
"V0:p" (-1.27502e-16 -1.55782e-10)
"VG" (0.00000 0.00000)
"VI" (1.00000 0.00000)
"VNOISE" (0.00000 0.00000)
"VO1" (1.00000 -1.55782e-07)
"VO2" (1.00000 -1.04809e-06)
"I1.net7" (1.00000 -1.00461e-06)
"freq" 5.912064049615359e+00
"gnd!" (0.00000 0.00000)
"PORT1:p" (0.00000 0.00000)
"V0:p" (-1.34007e-16 -1.59730e-10)
"VG" (0.00000 0.00000)
"VI" (1.00000 0.00000)
"VNOISE" (0.00000 0.00000)
"VO1" (1.00000 -1.59730e-07)
"VO2" (1.00000 -1.07465e-06)
"I1.net7" (1.00000 -1.03008e-06)
"freq" 6.061898993497540e+00
"gnd!" (0.00000 0.00000)
"PORT1:p" (0.00000 0.00000)
"V0:p" (-1.40946e-16 -1.63779e-10)
"VG" (0.00000 0.00000)
"VI" (1.00000 0.00000)
"VNOISE" (0.00000 0.00000)
"VO1" (1.00000 -1.63779e-07)
"VO2" (1.00000 -1.10189e-06)
"I1.net7" (1.00000 -1.05618e-06)
"freq" 6.215531343872573e+00
"gnd!" (0.00000 0.00000)
"PORT1:p" (0.00000 0.00000)
"V0:p" (-1.48102e-16 -1.67929e-10)
"VG" (0.00000 0.00000)
"VI" (1.00000 0.00000)
"VNOISE" (0.00000 0.00000)
"VO1" (1.00000 -1.67929e-07)
"VO2" (1.00000 -1.12981e-06)
"I1.net7" (1.00000 -1.08295e-06)
"freq" 6.373057341948943e+00
"gnd!" (0.00000 0.00000)
"PORT1:p" (0.00000 0.00000)
"V0:p" (-1.55908e-16 -1.72185e-10)
"VG" (0.00000 0.00000)
"VI" (1.00000 0.00000)
"VNOISE" (0.00000 0.00000)
"VO1" (1.00000 -1.72185e-07)
"VO2" (1.00000 -1.15845e-06)
"I1.net7" (1.00000 -1.11040e-06)
"freq" 6.534575668065685e+00
"gnd!" (0.00000 0.00000)
"PORT1:p" (0.00000 0.00000)
"V0:p" (-1.63715e-16 -1.76549e-10)
"VG" (0.00000 0.00000)
"VI" (1.00000 0.00000)
"VNOISE" (0.00000 0.00000)
"VO1" (1.00000 -1.76549e-07)
"VO2" (1.00000 -1.18781e-06)
"I1.net7" (1.00000 -1.13854e-06)
"freq" 6.700187503509549e+00
"gnd!" (0.00000 0.00000)
"PORT1:p" (0.00000 0.00000)
"V0:p" (-1.72171e-16 -1.81024e-10)
"VG" (0.00000 0.00000)
"VI" (1.00000 0.00000)
"VNOISE" (0.00000 0.00000)
"VO1" (1.00000 -1.81024e-07)
"VO2" (1.00000 -1.21791e-06)
"I1.net7" (1.00000 -1.16739e-06)
"freq" 6.869996593898845e+00
"gnd!" (0.00000 0.00000)
"PORT1:p" (0.00000 0.00000)
"V0:p" (-1.80845e-16 -1.85611e-10)
"VG" (0.00000 0.00000)
"VI" (1.00000 0.00000)
"VNOISE" (0.00000 0.00000)
"VO1" (1.00000 -1.85611e-07)
"VO2" (1.00000 -1.24878e-06)
"I1.net7" (1.00000 -1.19698e-06)
"freq" 7.044109314173683e+00
"gnd!" (0.00000 0.00000)
"PORT1:p" (0.00000 0.00000)
"V0:p" (-1.90169e-16 -1.90316e-10)
"VG" (0.00000 0.00000)
"VI" (1.00000 0.00000)
"VNOISE" (0.00000 0.00000)
"VO1" (1.00000 -1.90316e-07)
"VO2" (1.00000 -1.28043e-06)
"I1.net7" (1.00000 -1.22731e-06)
"freq" 7.222634735233326e+00
"gnd!" (0.00000 0.00000)
"PORT1:p" (0.00000 0.00000)
"V0:p" (-2.00144e-16 -1.95139e-10)
"VG" (0.00000 0.00000)
"VI" (1.00000 0.00000)
"VNOISE" (0.00000 0.00000)
"VO1" (1.00000 -1.95139e-07)
"VO2" (1.00000 -1.31288e-06)
"I1.net7" (1.00000 -1.25842e-06)
"freq" 7.405684692262391e+00
"gnd!" (0.00000 0.00000)
"PORT1:p" (0.00000 0.00000)
"V0:p" (-2.10335e-16 -2.00085e-10)
"VG" (0.00000 0.00000)
"VI" (1.00000 0.00000)
"VNOISE" (0.00000 0.00000)
"VO1" (1.00000 -2.00085e-07)
"VO2" (1.00000 -1.34615e-06)
"I1.net7" (1.00000 -1.29031e-06)
"freq" 7.593373854788709e+00
"gnd!" (0.00000 0.00000)
"PORT1:p" (0.00000 0.00000)
"V0:p" (-2.21177e-16 -2.05155e-10)
"VG" (0.00000 0.00000)
"VI" (1.00000 0.00000)
"VNOISE" (0.00000 0.00000)
"VO1" (1.00000 -2.05155e-07)
"VO2" (1.00000 -1.38027e-06)
"I1.net7" (1.00000 -1.32301e-06)
"freq" 7.785819798516721e+00
"gnd!" (0.00000 0.00000)
"PORT1:p" (0.00000 0.00000)
"V0:p" (-2.32453e-16 -2.10355e-10)
"VG" (0.00000 0.00000)
"VI" (1.00000 0.00000)
"VNOISE" (0.00000 0.00000)
"VO1" (1.00000 -2.10355e-07)
"VO2" (1.00000 -1.41525e-06)
"I1.net7" (1.00000 -1.35654e-06)
"freq" 7.983143078981422e+00
"gnd!" (0.00000 0.00000)
"PORT1:p" (0.00000 0.00000)
"V0:p" (-2.44596e-16 -2.15686e-10)
"VG" (0.00000 0.00000)
"VI" (1.00000 0.00000)
"VNOISE" (0.00000 0.00000)
"VO1" (1.00000 -2.15686e-07)
"VO2" (1.00000 -1.45112e-06)
"I1.net7" (1.00000 -1.39092e-06)
"freq" 8.185467307068974e+00
"gnd!" (0.00000 0.00000)
"PORT1:p" (0.00000 0.00000)
"V0:p" (-2.57173e-16 -2.21152e-10)
"VG" (0.00000 0.00000)
"VI" (1.00000 0.00000)
"VNOISE" (0.00000 0.00000)
"VO1" (1.00000 -2.21152e-07)
"VO2" (1.00000 -1.48789e-06)
"I1.net7" (1.00000 -1.42618e-06)
"freq" 8.392919226451324e+00
"gnd!" (0.00000 0.00000)
"PORT1:p" (0.00000 0.00000)
"V0:p" (-2.70183e-16 -2.26757e-10)
"VG" (0.00000 0.00000)
"VI" (1.00000 0.00000)
"VNOISE" (0.00000 0.00000)
"VO1" (1.00000 -2.26757e-07)
"VO2" (1.00000 -1.52560e-06)
"I1.net7" (1.00000 -1.46232e-06)
"freq" 8.605628792983309e+00
"gnd!" (0.00000 0.00000)
"PORT1:p" (0.00000 0.00000)
"V0:p" (-2.83844e-16 -2.32504e-10)
"VG" (0.00000 0.00000)
"VI" (1.00000 0.00000)
"VNOISE" (0.00000 0.00000)
"VO1" (1.00000 -2.32504e-07)
"VO2" (1.00000 -1.56427e-06)
"I1.net7" (1.00000 -1.49938e-06)
"freq" 8.823729256111989e+00
"gnd!" (0.00000 0.00000)
"PORT1:p" (0.00000 0.00000)
"V0:p" (-2.98589e-16 -2.38397e-10)
"VG" (0.00000 0.00000)
"VI" (1.00000 0.00000)
"VNOISE" (0.00000 0.00000)
"VO1" (1.00000 -2.38397e-07)
"VO2" (1.00000 -1.60391e-06)
"I1.net7" (1.00000 -1.53738e-06)
"freq" 9.047357242349234e+00
"gnd!" (0.00000 0.00000)
"PORT1:p" (0.00000 0.00000)
"V0:p" (-3.13985e-16 -2.44439e-10)
"VG" (0.00000 0.00000)
"VI" (1.00000 0.00000)
"VNOISE" (0.00000 0.00000)
"VO1" (1.00000 -2.44439e-07)
"VO2" (1.00000 -1.64456e-06)
"I1.net7" (1.00000 -1.57635e-06)
"freq" 9.276652840859814e+00
"gnd!" (0.00000 0.00000)
"PORT1:p" (0.00000 0.00000)
"V0:p" (-3.30248e-16 -2.50634e-10)
"VG" (0.00000 0.00000)
"VI" (1.00000 0.00000)
"VNOISE" (0.00000 0.00000)
"VO1" (1.00000 -2.50634e-07)
"VO2" (1.00000 -1.68624e-06)
"I1.net7" (1.00000 -1.61630e-06)
"freq" 9.511759691218638e+00
"gnd!" (0.00000 0.00000)
"PORT1:p" (0.00000 0.00000)
"V0:p" (-3.47378e-16 -2.56986e-10)
"VG" (0.00000 0.00000)
"VI" (1.00000 0.00000)
"VNOISE" (0.00000 0.00000)
"VO1" (1.00000 -2.56986e-07)
"VO2" (1.00000 -1.72898e-06)
"I1.net7" (1.00000 -1.65726e-06)
"freq" 9.752825073392103e+00
"gnd!" (0.00000 0.00000)
"PORT1:p" (0.00000 0.00000)
"V0:p" (-3.64942e-16 -2.63499e-10)
"VG" (0.00000 0.00000)
"VI" (1.00000 0.00000)
"VNOISE" (0.00000 0.00000)
"VO1" (1.00000 -2.63499e-07)
"VO2" (1.00000 -1.77280e-06)
"I1.net7" (1.00000 -1.69926e-06)
"freq" 9.999999999999925e+00
"gnd!" (0.00000 0.00000)
"PORT1:p" (0.00000 0.00000)
"V0:p" (-3.83808e-16 -2.70177e-10)
"VG" (0.00000 0.00000)
"VI" (1.00000 0.00000)
"VNOISE" (0.00000 0.00000)
"VO1" (1.00000 -2.70177e-07)
"VO2" (1.00000 -1.81773e-06)
"I1.net7" (1.00000 -1.74233e-06)
"freq" 1.025343931091525e+01
"gnd!" (0.00000 0.00000)
"PORT1:p" (0.00000 0.00000)
"V0:p" (-4.03540e-16 -2.77024e-10)
"VG" (0.00000 0.00000)
"VI" (1.00000 0.00000)
"VNOISE" (0.00000 0.00000)
"VO1" (1.00000 -2.77024e-07)
"VO2" (1.00000 -1.86379e-06)
"I1.net7" (1.00000 -1.78648e-06)
"freq" 1.051330177026230e+01
"gnd!" (0.00000 0.00000)
"PORT1:p" (0.00000 0.00000)
"V0:p" (-4.24140e-16 -2.84045e-10)
"VG" (0.00000 0.00000)
"VI" (1.00000 0.00000)
"VNOISE" (0.00000 0.00000)
"VO1" (1.00000 -2.84045e-07)
"VO2" (1.00000 -1.91103e-06)
"I1.net7" (1.00000 -1.83176e-06)
"freq" 1.077975016587232e+01
"gnd!" (0.00000 0.00000)
"PORT1:p" (0.00000 0.00000)
"V0:p" (-4.45824e-16 -2.91244e-10)
"VG" (0.00000 0.00000)
"VI" (1.00000 0.00000)
"VNOISE" (0.00000 0.00000)
"VO1" (1.00000 -2.91244e-07)
"VO2" (1.00000 -1.95946e-06)
"I1.net7" (1.00000 -1.87819e-06)
"freq" 1.105295141126013e+01
"gnd!" (0.00000 0.00000)
"PORT1:p" (0.00000 0.00000)
"V0:p" (-4.68809e-16 -2.98625e-10)
"VG" (0.00000 0.00000)
"VI" (1.00000 0.00000)
"VNOISE" (0.00000 0.00000)
"VO1" (1.00000 -2.98625e-07)
"VO2" (1.00000 -2.00912e-06)
"I1.net7" (1.00000 -1.92579e-06)
"freq" 1.133307665018517e+01
"gnd!" (0.00000 0.00000)
"PORT1:p" (0.00000 0.00000)
"V0:p" (-4.92878e-16 -3.06194e-10)
"VG" (0.00000 0.00000)
"VI" (1.00000 0.00000)
"VNOISE" (0.00000 0.00000)
"VO1" (1.00000 -3.06194e-07)
"VO2" (1.00000 -2.06004e-06)
"I1.net7" (1.00000 -1.97459e-06)
"freq" 1.162030136386252e+01
"gnd!" (0.00000 0.00000)
"PORT1:p" (0.00000 0.00000)
"V0:p" (-5.18249e-16 -3.13954e-10)
"VG" (0.00000 0.00000)
"VI" (1.00000 0.00000)
"VNOISE" (0.00000 0.00000)
"VO1" (1.00000 -3.13954e-07)
"VO2" (1.00000 -2.11225e-06)
"I1.net7" (1.00000 -2.02464e-06)
"freq" 1.191480548089110e+01
"gnd!" (0.00000 0.00000)
"PORT1:p" (0.00000 0.00000)
"V0:p" (-5.44703e-16 -3.21911e-10)
"VG" (0.00000 0.00000)
"VI" (1.00000 0.00000)
"VNOISE" (0.00000 0.00000)
"VO1" (1.00000 -3.21911e-07)
"VO2" (1.00000 -2.16578e-06)
"I1.net7" (1.00000 -2.07595e-06)
"freq" 1.221677348996782e+01
"gnd!" (0.00000 0.00000)
"PORT1:p" (0.00000 0.00000)
"V0:p" (-5.72676e-16 -3.30069e-10)
"VG" (0.00000 0.00000)
"VI" (1.00000 0.00000)
"VNOISE" (0.00000 0.00000)
"VO1" (1.00000 -3.30069e-07)
"VO2" (1.00000 -2.22067e-06)
"I1.net7" (1.00000 -2.12856e-06)
"freq" 1.252639455545843e+01
"gnd!" (0.00000 0.00000)
"PORT1:p" (0.00000 0.00000)
"V0:p" (-6.02166e-16 -3.38434e-10)