HEADER
"PSFversion" "1.00"
"simulator" "spectre"
"version" "10.1.1.128.isr9"
"date" "7:26:28 PM, Fri May 15, 2015"
"design" "// Generated by PySpectre"
"analysis type" "dc"
"analysis name" "dcOp"
"analysis description" "DC Analysis `dcOp'"
"xVecSorted" "unsorted"
"tolerance.relative" 0.00100000
"reltol" 0.00100000
"abstol(V)" 1.00000e-06
"abstol(I)" 1.00000e-12
"temp" 27.0000
"tnom" 27.0000
"tempeffects" "all"
"gmindc" 1.00000e-12
TYPE
"V" FLOAT DOUBLE PROP(
"units" "V"
"key" "node"
"tolerance" 1.00000e-06
)
"I" FLOAT DOUBLE PROP(
"units" "A"
"key" "branch"
"tolerance" 1.00000e-12
)
"MMF" FLOAT DOUBLE PROP(
"units" "A*turn"
"key" "node"
"tolerance" 1.00000e-12
)
"Wb" FLOAT DOUBLE PROP(
"units" "Wb"
"key" "node"
"tolerance" 1.00000e-09
)
"Temp" FLOAT DOUBLE PROP(
"units" "C"
"key" "node"
"tolerance" 0.000100000
)
"Pwr" FLOAT DOUBLE PROP(
"units" "W"
"key" "node"
"tolerance" 1.00000e-09
)
"U" FLOAT DOUBLE PROP(
"units" ""
"key" "node"
"tolerance" 1.00000e-06
)
"V/Sec" FLOAT DOUBLE PROP(
"units" "V/s"
"key" "node"
"tolerance" 0.000100000
)
"I/Sec" FLOAT DOUBLE PROP(
"units" "A/s"
"key" "node"
"tolerance" 1.00000e-06
)
"1/Sec" FLOAT DOUBLE PROP(
"units" "1/s"
"key" "node"
"tolerance" 0.000100000
)
"HOD" FLOAT DOUBLE PROP(
"units" ""
"key" "node"
"tolerance" 0.0100000
)
VALUE
"gnd!" "V" 0.000000000000000e+00
"PORT1:p" "I" -2.000000000000000e-02
"V0:p" "I" 0.000000000000000e+00
"VG" "V" 5.647530031723104e-01
"VI" "V" 0.000000000000000e+00
"VNOISE" "V" 1.000000000000000e+00
"VO1" "V" 0.000000000000000e+00
"VO2" "V" 0.000000000000000e+00
"I1.net7" "V" 0.000000000000000e+00
END
