HEADER
"PSFversion" "1.00"
"simulator" "spectre"
"version" "10.1.1.128.isr9"
"date" "7:26:28 PM, Fri May 15, 2015"
"design" "// Generated by PySpectre"
"analysis type" "dc"
"analysis name" "dcOp.sens"
"analysis description" "DC Analysis `dcOp' - Sensitivity"
"xVecSorted" "unsorted"
"tolerance.relative" 0.00100000
TYPE
"V" FLOAT DOUBLE PROP(
"units" "V"
"key" "node"
"tolerance" 1.00000e-06
)
"I" FLOAT DOUBLE PROP(
"units" "A"
"key" "branch"
"tolerance" 1.00000e-12
)
"MMF" FLOAT DOUBLE PROP(
"units" "A*turn"
"key" "node"
"tolerance" 1.00000e-12
)
"Wb" FLOAT DOUBLE PROP(
"units" "Wb"
"key" "node"
"tolerance" 1.00000e-09
)
"Temp" FLOAT DOUBLE PROP(
"units" "C"
"key" "node"
"tolerance" 0.000100000
)
"Pwr" FLOAT DOUBLE PROP(
"units" "W"
"key" "node"
"tolerance" 1.00000e-09
)
"U" FLOAT DOUBLE PROP(
"units" ""
"key" "node"
"tolerance" 1.00000e-06
)
"V/Sec" FLOAT DOUBLE PROP(
"units" "V/s"
"key" "node"
"tolerance" 0.000100000
)
"I/Sec" FLOAT DOUBLE PROP(
"units" "A/s"
"key" "node"
"tolerance" 1.00000e-06
)
"1/Sec" FLOAT DOUBLE PROP(
"units" "1/s"
"key" "node"
"tolerance" 0.000100000
)
"HOD" FLOAT DOUBLE PROP(
"units" ""
"key" "node"
"tolerance" 0.0100000
)
"sens1Req" STRUCT(
"VNOISE,R0:r" FLOAT DOUBLE
"VO2,R0:r" FLOAT DOUBLE
"VNOISE,R0:l" FLOAT DOUBLE
"VO2,R0:l" FLOAT DOUBLE
"VNOISE,R0:w" FLOAT DOUBLE
"VO2,R0:w" FLOAT DOUBLE
"VNOISE,R0:m" FLOAT DOUBLE
"VO2,R0:m" FLOAT DOUBLE
"VNOISE,R0:scale" FLOAT DOUBLE
"VO2,R0:scale" FLOAT DOUBLE
"VNOISE,R0:tc1" FLOAT DOUBLE
"VO2,R0:tc1" FLOAT DOUBLE
"VNOISE,R0:tc1r" FLOAT DOUBLE
"VO2,R0:tc1r" FLOAT DOUBLE
"VNOISE,R0:tc2" FLOAT DOUBLE
"VO2,R0:tc2" FLOAT DOUBLE
"VNOISE,R0:tc2r" FLOAT DOUBLE
"VO2,R0:tc2r" FLOAT DOUBLE
"VNOISE,R0:trise" FLOAT DOUBLE
"VO2,R0:trise" FLOAT DOUBLE
"VNOISE,R0:bv_max" FLOAT DOUBLE
"VO2,R0:bv_max" FLOAT DOUBLE
"VNOISE,R0:c" FLOAT DOUBLE
"VO2,R0:c" FLOAT DOUBLE
"VNOISE,R0:tc1c" FLOAT DOUBLE
"VO2,R0:tc1c" FLOAT DOUBLE
"VNOISE,R0:tc2c" FLOAT DOUBLE
"VO2,R0:tc2c" FLOAT DOUBLE
"VNOISE,R0:rac" FLOAT DOUBLE
"VO2,R0:rac" FLOAT DOUBLE
"VNOISE,R0:scaler" FLOAT DOUBLE
"VO2,R0:scaler" FLOAT DOUBLE
"VNOISE,R0:scalec" FLOAT DOUBLE
"VO2,R0:scalec" FLOAT DOUBLE
"VNOISE,R0:dtemp" FLOAT DOUBLE
"VO2,R0:dtemp" FLOAT DOUBLE
"VNOISE,R0:cap" FLOAT DOUBLE
"VO2,R0:cap" FLOAT DOUBLE
"VNOISE,R0:ac" FLOAT DOUBLE
"VO2,R0:ac" FLOAT DOUBLE
"VNOISE,R0:tc3" FLOAT DOUBLE
"VO2,R0:tc3" FLOAT DOUBLE
"VNOISE,R0:kf" FLOAT DOUBLE
"VO2,R0:kf" FLOAT DOUBLE
"VNOISE,R0:af" FLOAT DOUBLE
"VO2,R0:af" FLOAT DOUBLE
"VNOISE,I0.R0:r" FLOAT DOUBLE
"VO2,I0.R0:r" FLOAT DOUBLE
"VNOISE,I0.R0:l" FLOAT DOUBLE
"VO2,I0.R0:l" FLOAT DOUBLE
"VNOISE,I0.R0:w" FLOAT DOUBLE
"VO2,I0.R0:w" FLOAT DOUBLE
"VNOISE,I0.R0:m" FLOAT DOUBLE
"VO2,I0.R0:m" FLOAT DOUBLE
"VNOISE,I0.R0:scale" FLOAT DOUBLE
"VO2,I0.R0:scale" FLOAT DOUBLE
"VNOISE,I0.R0:tc1" FLOAT DOUBLE
"VO2,I0.R0:tc1" FLOAT DOUBLE
"VNOISE,I0.R0:tc1r" FLOAT DOUBLE
"VO2,I0.R0:tc1r" FLOAT DOUBLE
"VNOISE,I0.R0:tc2" FLOAT DOUBLE
"VO2,I0.R0:tc2" FLOAT DOUBLE
"VNOISE,I0.R0:tc2r" FLOAT DOUBLE
"VO2,I0.R0:tc2r" FLOAT DOUBLE
"VNOISE,I0.R0:trise" FLOAT DOUBLE
"VO2,I0.R0:trise" FLOAT DOUBLE
"VNOISE,I0.R0:bv_max" FLOAT DOUBLE
"VO2,I0.R0:bv_max" FLOAT DOUBLE
"VNOISE,I0.R0:c" FLOAT DOUBLE
"VO2,I0.R0:c" FLOAT DOUBLE
"VNOISE,I0.R0:tc1c" FLOAT DOUBLE
"VO2,I0.R0:tc1c" FLOAT DOUBLE
"VNOISE,I0.R0:tc2c" FLOAT DOUBLE
"VO2,I0.R0:tc2c" FLOAT DOUBLE
"VNOISE,I0.R0:rac" FLOAT DOUBLE
"VO2,I0.R0:rac" FLOAT DOUBLE
"VNOISE,I0.R0:scaler" FLOAT DOUBLE
"VO2,I0.R0:scaler" FLOAT DOUBLE
"VNOISE,I0.R0:scalec" FLOAT DOUBLE
"VO2,I0.R0:scalec" FLOAT DOUBLE
"VNOISE,I0.R0:dtemp" FLOAT DOUBLE
"VO2,I0.R0:dtemp" FLOAT DOUBLE
"VNOISE,I0.R0:cap" FLOAT DOUBLE
"VO2,I0.R0:cap" FLOAT DOUBLE
"VNOISE,I0.R0:ac" FLOAT DOUBLE
"VO2,I0.R0:ac" FLOAT DOUBLE
"VNOISE,I0.R0:tc3" FLOAT DOUBLE
"VO2,I0.R0:tc3" FLOAT DOUBLE
"VNOISE,I0.R0:kf" FLOAT DOUBLE
"VO2,I0.R0:kf" FLOAT DOUBLE
"VNOISE,I0.R0:af" FLOAT DOUBLE
"VO2,I0.R0:af" FLOAT DOUBLE
) PROP(
"key" "inst"
)
VALUE
"sens1" "sens1Req" (
9.999999892897904e-03
0.000000000000000e+00
0.000000000000000e+00
0.000000000000000e+00
0.000000000000000e+00
0.000000000000000e+00
-5.000000004656613e-01
0.000000000000000e+00
0.000000000000000e+00
0.000000000000000e+00
0.000000000000000e+00
0.000000000000000e+00
0.000000000000000e+00
0.000000000000000e+00
0.000000000000000e+00
0.000000000000000e+00
0.000000000000000e+00
0.000000000000000e+00
0.000000000000000e+00
0.000000000000000e+00
0.000000000000000e+00
0.000000000000000e+00
0.000000000000000e+00
0.000000000000000e+00
0.000000000000000e+00
0.000000000000000e+00
0.000000000000000e+00
0.000000000000000e+00
0.000000000000000e+00
0.000000000000000e+00
0.000000000000000e+00
0.000000000000000e+00
0.000000000000000e+00
0.000000000000000e+00
0.000000000000000e+00
0.000000000000000e+00
0.000000000000000e+00
0.000000000000000e+00
0.000000000000000e+00
0.000000000000000e+00
0.000000000000000e+00
0.000000000000000e+00
0.000000000000000e+00
0.000000000000000e+00
0.000000000000000e+00
0.000000000000000e+00
0.000000000000000e+00
0.000000000000000e+00
0.000000000000000e+00
0.000000000000000e+00
0.000000000000000e+00
0.000000000000000e+00
0.000000000000000e+00
0.000000000000000e+00
0.000000000000000e+00
0.000000000000000e+00
0.000000000000000e+00
0.000000000000000e+00
0.000000000000000e+00
0.000000000000000e+00
0.000000000000000e+00
0.000000000000000e+00
0.000000000000000e+00
0.000000000000000e+00
0.000000000000000e+00
0.000000000000000e+00
0.000000000000000e+00
0.000000000000000e+00
0.000000000000000e+00
0.000000000000000e+00
0.000000000000000e+00
0.000000000000000e+00
0.000000000000000e+00
0.000000000000000e+00
0.000000000000000e+00
0.000000000000000e+00
0.000000000000000e+00
0.000000000000000e+00
0.000000000000000e+00
0.000000000000000e+00
0.000000000000000e+00
0.000000000000000e+00
0.000000000000000e+00
0.000000000000000e+00
0.000000000000000e+00
0.000000000000000e+00
0.000000000000000e+00
0.000000000000000e+00
0.000000000000000e+00
0.000000000000000e+00
0.000000000000000e+00
0.000000000000000e+00
)
END
