HEADER
"PSFversion" "1.00"
"simulator" "spectre"
"version" "10.1.1.128.isr9"
"date" "7:26:28 PM, Fri May 15, 2015"
"design" "// Generated by PySpectre"
"analysis type" "info"
"analysis name" "element"
"analysis description" "Circuit Information"
"xVecSorted" "unsorted"
"tolerance.relative" 0.00100000
TYPE
"bsim4~instparams" STRUCT(
"w" FLOAT DOUBLE PROP(
"units" "m"
"description" "Channel width"
)
"l" FLOAT DOUBLE PROP(
"units" "m"
"description" "Channel length"
)
"as" FLOAT DOUBLE PROP(
"units" "m^2"
"description" "Area of source diffusion"
)
"ad" FLOAT DOUBLE PROP(
"units" "m^2"
"description" "Area of drain diffusion"
)
"ps" FLOAT DOUBLE PROP(
"units" "m"
"description" "Perimeter of source diffusion"
)
"pd" FLOAT DOUBLE PROP(
"units" "m"
"description" "Perimeter of drain diffusion"
)
"nrd" FLOAT DOUBLE PROP(
"description" "Number of squares of drain diffusion"
)
"nrs" FLOAT DOUBLE PROP(
"description" "Number of squares of source diffusion"
)
"rdc" FLOAT DOUBLE PROP(
"units" "Ohm"
"description" "Drain contact resistance"
)
"rsc" FLOAT DOUBLE PROP(
"units" "Ohm"
"description" "Source contact resistance"
)
"sa" FLOAT DOUBLE PROP(
"units" "m"
"description" "Distance between OD edge to poly from one side"
)
"sb" FLOAT DOUBLE PROP(
"units" "m"
"description" "Distance between OD edge to poly from the other side"
)
"sd" FLOAT DOUBLE PROP(
"units" "m"
"description" "Distance between neighbour fingers"
)
"sa1" FLOAT DOUBLE PROP(
"units" "m"
"description" "Distance between OD edge to poly from one side 1"
)
"sa2" FLOAT DOUBLE PROP(
"units" "m"
"description" "Distance between OD edge to poly from one side 2"
)
"sa3" FLOAT DOUBLE PROP(
"units" "m"
"description" "Distance between OD edge to poly from one side 3"
)
"sa4" FLOAT DOUBLE PROP(
"units" "m"
"description" "Distance between OD edge to poly from one side 4"
)
"sa5" FLOAT DOUBLE PROP(
"units" "m"
"description" "Distance between OD edge to poly from one side 5"
)
"sa6" FLOAT DOUBLE PROP(
"units" "m"
"description" "Distance between OD edge to poly from one side 6"
)
"sa7" FLOAT DOUBLE PROP(
"units" "m"
"description" "Distance between OD edge to poly from one side 7"
)
"sa8" FLOAT DOUBLE PROP(
"units" "m"
"description" "Distance between OD edge to poly from one side 8"
)
"sa9" FLOAT DOUBLE PROP(
"units" "m"
"description" "Distance between OD edge to poly from one side 9"
)
"sa10" FLOAT DOUBLE PROP(
"units" "m"
"description" "Distance between OD edge to poly from one side 10"
)
"sb1" FLOAT DOUBLE PROP(
"units" "m"
"description" "Distance between OD edge to poly from other side 1"
)
"sb2" FLOAT DOUBLE PROP(
"units" "m"
"description" "Distance between OD edge to poly from other side 2"
)
"sb3" FLOAT DOUBLE PROP(
"units" "m"
"description" "Distance between OD edge to poly from other side 3"
)
"sb4" FLOAT DOUBLE PROP(
"units" "m"
"description" "Distance between OD edge to poly from other side 4"
)
"sb5" FLOAT DOUBLE PROP(
"units" "m"
"description" "Distance between OD edge to poly from other side 5"
)
"sb6" FLOAT DOUBLE PROP(
"units" "m"
"description" "Distance between OD edge to poly from other side 6"
)
"sb7" FLOAT DOUBLE PROP(
"units" "m"
"description" "Distance between OD edge to poly from other side 7"
)
"sb8" FLOAT DOUBLE PROP(
"units" "m"
"description" "Distance between OD edge to poly from other side 8"
)
"sb9" FLOAT DOUBLE PROP(
"units" "m"
"description" "Distance between OD edge to poly from other side 9"
)
"sb10" FLOAT DOUBLE PROP(
"units" "m"
"description" "Distance between OD edge to poly from other side 10"
)
"sw1" FLOAT DOUBLE PROP(
"units" "m"
"description" "Width of SA1/SB1"
)
"sw2" FLOAT DOUBLE PROP(
"units" "m"
"description" "Width of SA2/SB2"
)
"sw3" FLOAT DOUBLE PROP(
"units" "m"
"description" "Width of SA3/SB3"
)
"sw4" FLOAT DOUBLE PROP(
"units" "m"
"description" "Width of SA4/SB4"
)
"sw5" FLOAT DOUBLE PROP(
"units" "m"
"description" "Width of SA5/SB5"
)
"sw6" FLOAT DOUBLE PROP(
"units" "m"
"description" "Width of SA6/SB6"
)
"sw7" FLOAT DOUBLE PROP(
"units" "m"
"description" "Width of SA7/SB7"
)
"sw8" FLOAT DOUBLE PROP(
"units" "m"
"description" "Width of SA8/SB8"
)
"sw9" FLOAT DOUBLE PROP(
"units" "m"
"description" "Width of SA9/SB9"
)
"sw10" FLOAT DOUBLE PROP(
"units" "m"
"description" "Width of SA10/SB10"
)
"m" FLOAT DOUBLE PROP(
"description" "Multiplicity factor (number of MOSFETs in parallel)"
)
"trise" FLOAT DOUBLE PROP(
"description" "Temperature rise from ambient"
)
"dtemp" FLOAT DOUBLE PROP(
"description" "Alias for trise"
)
"deltox" FLOAT DOUBLE PROP(
"units" "m"
"description" "Shift in gate electrical/physical equivalent oxide thinkness (for both TOXE and TOXP"
)
"rbpb" FLOAT DOUBLE PROP(
"units" "Ohm"
"description" "Resistance connected between bNode' and bNode"
)
"rbpd" FLOAT DOUBLE PROP(
"units" "Ohm"
"description" "Resistance connected between bNode' and dbNode"
)
"rbps" FLOAT DOUBLE PROP(
"units" "Ohm"
"description" "Resistance connected between bNode' and sbNode"
)
"rbdb" FLOAT DOUBLE PROP(
"units" "Ohm"
"description" "Resistance connected between dbNode and bNode"
)
"rbsb" FLOAT DOUBLE PROP(
"units" "Ohm"
"description" "Resistance connected between sbNode and bNode"
)
"delvto" FLOAT DOUBLE PROP(
"units" "V"
"description" "Shift in zer0-bias threshold voltage vth0"
)
"mulmu0" FLOAT DOUBLE PROP(
"description" "Mobility multiplier, alias of mulu0"
)
"mulvsat" FLOAT DOUBLE PROP(
"description" "Vsat multiplier"
)
"mulu0" FLOAT DOUBLE PROP(
"description" "Mobility multiplier"
)
"mulid0" FLOAT DOUBLE PROP(
"description" "Ids multiplier"
)
"delk1" FLOAT DOUBLE PROP(
"units" "sqrt(V)"
"description" "Shift in body bias coefficient k1"
)
"delnfct" FLOAT DOUBLE PROP(
"description" "Shift in subthreshold swing factor nfactor"
)
"deleta0" FLOAT DOUBLE PROP(
"description" "Shift in DIBL coefficient subthreshold region"
)
"sca" FLOAT DOUBLE PROP(
"description" "Integral of the first distribution function for scattered well dopant"
)
"scb" FLOAT DOUBLE PROP(
"description" "Integral of the second distribution function for scattered well dopant"
)
"scc" FLOAT DOUBLE PROP(
"description" "Integral of the third distribution function for scattered well dopant"
)
"sc" FLOAT DOUBLE PROP(
"units" "m"
"description" "Distance to a single well edge"
)
"xgw" FLOAT DOUBLE PROP(
"units" "m"
"description" "Distance from the gate contact to the channel edge"
)
"trnqsmod" INT LONG PROP(
"description" "Transient NQS model selector"
)
"acnqsmod" INT LONG PROP(
"description" "AC small-signal NQS model selector"
)
"rgatemod" INT LONG PROP(
"description" "Gate resistance model selector"
)
"rbodymod" INT LONG PROP(
"description" "Substrate resistance network model selector"
)
"geomod" INT LONG PROP(
"description" "Geometry dependent parasitics model selector"
)
"stimod" INT LONG PROP(
"description" "LOD stress effect model selector"
)
"rgeomod" INT LONG PROP(
"description" "Diffusion resistance and contact model selector"
)
"nf" INT LONG PROP(
"description" "Number of device fingers"
)
"min" INT LONG PROP(
"description" "Whether to minimize the number of drain or source diffusions for evennumber fingered device. Set to 0 to minimize"
)
"ngcon" INT LONG PROP(
"description" "Number of gate contacts"
)
"isnoisy" INT BYTE PROP(
"description" "Should device generate noise"
)
"region" INT BYTE PROP(
"description" "Estimated operating region. %Z outputs the number (0-4) in a rawfile"
)
) PROP(
"key" "inst"
)
"capacitor~instparams" STRUCT(
"c" FLOAT DOUBLE PROP(
"units" "F"
"description" "Capacitance"
)
"w" FLOAT DOUBLE PROP(
"units" "m"
"description" "Capacitor width"
)
"l" FLOAT DOUBLE PROP(
"units" "m"
"description" "Capacitor length"
)
"m" FLOAT DOUBLE PROP(
"description" "Multiplicity factor"
)
"scale" FLOAT DOUBLE PROP(
"description" "Scale factor"
)
"trise" FLOAT DOUBLE PROP(
"units" "C"
"description" "Temperature rise from ambient"
)
"tc1" FLOAT DOUBLE PROP(
"units" "1/C"
"description" "Linear temperature coefficient"
)
"tc2" FLOAT DOUBLE PROP(
"units" "C^-2"
"description" "Quadratic temperature coefficient"
)
"ic" FLOAT DOUBLE PROP(
"units" "V"
"description" "Initial condition(alias=lv2)"
)
"area" FLOAT DOUBLE PROP(
"units" "m^2"
"description" "Capacitor area"
)
"perim" FLOAT DOUBLE PROP(
"units" "m"
"description" "Capacitor perimeter"
)
"bv_max" FLOAT DOUBLE PROP(
"units" "V"
"description" "Maximum allowed voltage cross two termials"
)
"scalec" FLOAT DOUBLE PROP(
"description" "Capacitance scaling factor"
)
) PROP(
"key" "inst"
)
"isource~instparams" STRUCT(
"dc" FLOAT DOUBLE PROP(
"units" "A"
"description" "DC value"
)
"delay" FLOAT DOUBLE PROP(
"units" "s"
"description" "Waveform delay time"
)
"val0" FLOAT DOUBLE PROP(
"units" "A"
"description" "Zero value used in pulse and exponential waveforms"
)
"val1" FLOAT DOUBLE PROP(
"units" "A"
"description" "One value used in pulse and exponential waveforms"
)
"period" FLOAT DOUBLE PROP(
"units" "s"
"description" "Period of waveform"
)
"rise" FLOAT DOUBLE PROP(
"units" "s"
"description" "Rise time for pulse waveform (time for transition from `val0' to `val1'). If parameter rise is not given, then the rise time  will be the same as fall time; if fall time is not given either, then the rise time will be 1/100 of the waveform period; if the waveform is not periodic, then the rise time will be 1/100 of the simulation interval"
)
"fall" FLOAT DOUBLE PROP(
"units" "s"
"description" "Fall time for pulse waveform (time for transition from `val1' to `val0'). If parameter fall is not given, then the fall time  will be the same as rise time; if rise time is not given either, then the fall time will be 1/100 of the waveform period; if the waveform is not periodic, then the fall time will be 1/100 of the simulation interval"
)
"width" FLOAT DOUBLE PROP(
"units" "s"
"description" "Pulse width (duration of `val1')"
)
"offset" FLOAT DOUBLE PROP(
"units" "A"
"description" "DC offset for the PWL waveform"
)
"scale" FLOAT DOUBLE PROP(
"description" "Scale factor for the PWL waveform"
)
"stretch" FLOAT DOUBLE PROP(
"description" "Scale factor for time given for the PWL waveform"
)
"rms" FLOAT DOUBLE PROP(
"description" "Desired rms(root of mean squre) value of the PWL waveform"
)
"rolloff" FLOAT DOUBLE PROP(
"description" "Desired rolloff factor for the raised cosine filter, default value is 0.2. Only valid when 'pwlfilter' is set to nrc"
)
"pwlbandwidth" FLOAT DOUBLE PROP(
"description" "Bandwith of the pwl input signal. Be used when 'pwlfilter' is set to nrc"
)
"pwlperiod" FLOAT DOUBLE PROP(
"units" "s"
"description" "Period of the periodic PWL waveform"
)
"pwlperiodstart" FLOAT DOUBLE PROP(
"units" "s"
"description" "Period start time of the periodic PWL waveform"
)
"twidth" FLOAT DOUBLE PROP(
"units" "s"
"description" "Transition width used when making PWL waveforms periodic"
)
"sinedc" FLOAT DOUBLE PROP(
"units" "A"
"description" "DC level for sinusoidal waveforms"
)
"ampl" FLOAT DOUBLE PROP(
"units" "A"
"description" "Peak amplitude of sinusoidal waveform"
)
"freq" FLOAT DOUBLE PROP(
"units" "Hz"
"description" "Frequency of sinusoidal waveform"
)
"sinephase" FLOAT DOUBLE PROP(
"units" "Deg"
"description" "Phase of sinusoid when `t=delay'"
)
"ampl2" FLOAT DOUBLE PROP(
"units" "A"
"description" "Peak amplitude of second sinusoidal waveform"
)
"freq2" FLOAT DOUBLE PROP(
"units" "Hz"
"description" "Frequency of second sinusoidal waveform"
)
"sinephase2" FLOAT DOUBLE PROP(
"units" "Deg"
"description" "Phase of second sinusoid when `t=delay'"
)
"fmmodindex" FLOAT DOUBLE PROP(
"description" "FM index of modulation for sinusoidal waveform"
)
"fmmodfreq" FLOAT DOUBLE PROP(
"units" "Hz"
"description" "FM modulation frequency for sinusoidal waveform"
)
"ammodindex" FLOAT DOUBLE PROP(
"description" "AM index of modulation for sinusoidal waveform"
)
"ammodoffset" FLOAT DOUBLE PROP(
"description" "AM offset of modulation for sinusoidal waveform"
)
"ammodfreq" FLOAT DOUBLE PROP(
"units" "Hz"
"description" "AM modulation frequency for sinusoidal waveform"
)
"ammodphase" FLOAT DOUBLE PROP(
"units" "Deg"
"description" "AM phase of modulation for sinusoidal waveform"
)
"damp" FLOAT DOUBLE PROP(
"units" "1/s"
"description" "Damping factor for sinusoidal waveform"
)
"td1" FLOAT DOUBLE PROP(
"units" "s"
"description" "Rise start time for exponential wave"
)
"tau1" FLOAT DOUBLE PROP(
"units" "s"
"description" "Rise time constant for exponential wave"
)
"td2" FLOAT DOUBLE PROP(
"units" "s"
"description" "Fall start time for exponential wave"
)
"tau2" FLOAT DOUBLE PROP(
"units" "s"
"description" "Fall time constant for exponential wave"
)
"ref" FLOAT DOUBLE PROP(
"units" "A"
"description" "Ref value. When the voltage on the control node is smaller than the ref value, prbs is turned off."
)
"jitter" FLOAT DOUBLE PROP(
"units" "s"
"description" "Waveform random delay time"
)
"mag" FLOAT DOUBLE PROP(
"units" "A"
"description" "Small signal current"
)
"phase" FLOAT DOUBLE PROP(
"units" "Deg"
"description" "Small signal phase"
)
"xfmag" FLOAT DOUBLE PROP(
"units" "A/A"
"description" "Transfer function analysis magnitude"
)
"pacmag" FLOAT DOUBLE PROP(
"units" "A"
"description" "Periodic AC analysis magnitude"
)
"pacphase" FLOAT DOUBLE PROP(
"units" "Deg"
"description" "Periodic AC analysis phase"
)
"m" FLOAT DOUBLE PROP(
"description" "Multiplicity factor"
)
"tc1" FLOAT DOUBLE PROP(
"units" "1/C"
"description" "First order temperature coefficient"
)
"tc2" FLOAT DOUBLE PROP(
"units" "C^-2"
"description" "Second order temperature coefficient"
)
"tnom" FLOAT DOUBLE PROP(
"units" "C"
"description" "Parameter measurement temperature. Default set by options"
)
"rptstart" INT LONG PROP(
"description" "The starting bit when repeating. The data repeats from the specified bit to the end of the bit string. The parameter should be an integer from 1 to the length of the bit string"
)
"rpttimes" INT LONG PROP(
"description" "The repeat times. The output will maitain the state of the last bit after the last repeat. If its value is negative, the string repeats forever"
)
"seed" INT LONG PROP(
"units" "s"
"description" "The seed to generate random count for the waveform"
)
"type" INT BYTE PROP(
"description" "Waveform type"
)
"edgetype" INT BYTE PROP(
"description" "Type of the rising and falling edges. This is for pulse waveform and pulse-like piecewise linear waveform"
)
"pwlfilter" INT BYTE PROP(
"description" "Add filter to pwl source, where the pwl data should be equal space sampled. Possible values are 'nrc'(normal raised cosine filter) and 'none'"
)
"allbrkpts" INT BYTE PROP(
"description" "All the points in the PWL waveform are breakpoints if set to yes. Default is yes if the number of points is less than 20"
)
"isnoisy" INT BYTE PROP(
"description" "Should isource generate noise"
)
) PROP(
"key" "inst"
)
"port~instparams" STRUCT(
"dc" FLOAT DOUBLE PROP(
"units" "V"
"description" "DC value"
)
"delay" FLOAT DOUBLE PROP(
"units" "s"
"description" "Waveform delay time"
)
"val0" FLOAT DOUBLE PROP(
"units" "V"
"description" "Zero value used in pulse and exponential waveforms"
)
"val1" FLOAT DOUBLE PROP(
"units" "V"
"description" "One value used in pulse and exponential waveforms"
)
"period" FLOAT DOUBLE PROP(
"units" "s"
"description" "Period of waveform"
)
"rise" FLOAT DOUBLE PROP(
"units" "s"
"description" "Rise time for pulse waveform (time for transition from `val0' to `val1'). If parameter rise is not given, then the rise time  will be the same as fall time; if fall time is not given either, then the rise time will be 1/100 of the waveform period; if the waveform is not periodic, then the rise time will be 1/100 of the simulation interval"
)
"fall" FLOAT DOUBLE PROP(
"units" "s"
"description" "Fall time for pulse waveform (time for transition from `val1' to `val0'). If parameter fall is not given, then the fall time  will be the same as rise time; if rise time is not given either, then the fall time will be 1/100 of the waveform period; if the waveform is not periodic, then the fall time will be 1/100 of the simulation interval"
)
"width" FLOAT DOUBLE PROP(
"units" "s"
"description" "Pulse width (duration of `val1')"
)
"offset" FLOAT DOUBLE PROP(
"units" "V"
"description" "DC offset for the PWL waveform"
)
"scale" FLOAT DOUBLE PROP(
"description" "Scale factor for the PWL waveform"
)
"pwldbm" FLOAT DOUBLE PROP(
"units" "dBm"
"description" "Power of PWL waveform in dBm (alternative to `scale')"
)
"stretch" FLOAT DOUBLE PROP(
"description" "Scale factor for time given for the PWL waveform"
)
"rms" FLOAT DOUBLE PROP(
"description" "Desired rms(root of mean squre) value of the PWL waveform"
)
"rolloff" FLOAT DOUBLE PROP(
"description" "Desired rolloff factor for the raised cosine filter, default value is 0.2. Only valid when 'pwlfilter' is set to nrc"
)
"pwlbandwidth" FLOAT DOUBLE PROP(
"description" "Bandwith of the pwl input signal. Be used when 'pwlfilter' is set to nrc"
)
"pwlperiod" FLOAT DOUBLE PROP(
"units" "s"
"description" "Period of the periodic PWL waveform"
)
"pwlperiodstart" FLOAT DOUBLE PROP(
"units" "s"
"description" "Period start time of the periodic PWL waveform"
)
"twidth" FLOAT DOUBLE PROP(
"units" "s"
"description" "Transition width used when making PWL waveforms periodic"
)
"sinedc" FLOAT DOUBLE PROP(
"units" "V"
"description" "DC level for sinusoidal waveforms"
)
"ampl" FLOAT DOUBLE PROP(
"units" "V"
"description" "Peak amplitude of sinusoidal waveform"
)
"dbm" FLOAT DOUBLE PROP(
"units" "dBm"
"description" "Amplitude of sinusoidal waveform in dBm (alternative to `ampl')"
)
"freq" FLOAT DOUBLE PROP(
"units" "Hz"
"description" "Frequency of sinusoidal waveform"
)
"sinephase" FLOAT DOUBLE PROP(
"units" "Deg"
"description" "Phase of sinusoid when `t=delay'"
)
"ampl2" FLOAT DOUBLE PROP(
"units" "V"
"description" "Peak amplitude of second sinusoidal waveform"
)
"dbm2" FLOAT DOUBLE PROP(
"units" "dBm"
"description" "Amplitude of second sinusoidal waveform in dBm (alternative to `ampl2')"
)
"freq2" FLOAT DOUBLE PROP(
"units" "Hz"
"description" "Frequency of second sinusoidal waveform"
)
"sinephase2" FLOAT DOUBLE PROP(
"units" "Deg"
"description" "Phase of second sinusoid when `t=delay'"
)
"fmmodindex" FLOAT DOUBLE PROP(
"description" "FM index of modulation for sinusoidal waveform"
)
"fmmodfreq" FLOAT DOUBLE PROP(
"units" "Hz"
"description" "FM modulation frequency for sinusoidal waveform"
)
"ammodindex" FLOAT DOUBLE PROP(
"description" "AM index of modulation for sinusoidal waveform"
)
"ammodoffset" FLOAT DOUBLE PROP(
"description" "AM offset of modulation for sinusoidal waveform"
)
"ammodfreq" FLOAT DOUBLE PROP(
"units" "Hz"
"description" "AM modulation frequency for sinusoidal waveform"
)
"ammodphase" FLOAT DOUBLE PROP(
"units" "Deg"
"description" "AM phase of modulation for sinusoidal waveform"
)
"damp" FLOAT DOUBLE PROP(
"units" "1/s"
"description" "Damping factor for sinusoidal waveform"
)
"td1" FLOAT DOUBLE PROP(
"units" "s"
"description" "Rise start time for exponential wave"
)
"tau1" FLOAT DOUBLE PROP(
"units" "s"
"description" "Rise time constant for exponential wave"
)
"td2" FLOAT DOUBLE PROP(
"units" "s"
"description" "Fall start time for exponential wave"
)
"tau2" FLOAT DOUBLE PROP(
"units" "s"
"description" "Fall time constant for exponential wave"
)
"ref" FLOAT DOUBLE PROP(
"units" "V"
"description" "Ref value. When the voltage on the control node is smaller than the ref value, prbs is turned off."
)
"jitter" FLOAT DOUBLE PROP(
"units" "s"
"description" "Waveform random delay time"
)
"noisetemp" FLOAT DOUBLE PROP(
"units" "C"
"description" "Noise temperature of port. If not specified, the noise temperature is taken to be 290 K"
)
"r" FLOAT DOUBLE PROP(
"units" "Ohm"
"description" "Reference resistance"
)
"x" FLOAT DOUBLE PROP(
"units" "Ohm"
"description" "Reference reactance, ignored for time domain analyses"
)
"lchock" FLOAT DOUBLE PROP(
"units" "H"
"description" "Choke inductor for network analyser"
)
"lchoke" FLOAT DOUBLE PROP(
"units" "H"
"description" "Choke inductor for network analyser"
)
"cblock" FLOAT DOUBLE PROP(
"units" "F"
"description" "Blocking capacitance for network analyser"
)
"m" FLOAT DOUBLE PROP(
"description" "Multiplicity factor"
)
"mag" FLOAT DOUBLE PROP(
"units" "V"
"description" "Small signal voltage"
)
"phase" FLOAT DOUBLE PROP(
"units" "Deg"
"description" "Small signal phase"
)
"xfmag" FLOAT DOUBLE PROP(
"units" "V/V"
"description" "Transfer function analysis magnitude"
)
"pacmag" FLOAT DOUBLE PROP(
"units" "V"
"description" "Periodic AC analysis magnitude"
)
"pacdbm" FLOAT DOUBLE PROP(
"units" "dBm"
"description" "Periodic AC analysis magnitude in dBm (alternative to `pacmag')"
)
"pacphase" FLOAT DOUBLE PROP(
"units" "Deg"
"description" "Periodic AC analysis phase"
)
"tc1" FLOAT DOUBLE PROP(
"units" "1/C"
"description" "First order temperature coefficient"
)
"tc2" FLOAT DOUBLE PROP(
"units" "C^-2"
"description" "Second order temperature coefficient"
)
"tnom" FLOAT DOUBLE PROP(
"units" "C"
"description" "Parameters measurement temperature. Default set by options"
)
"rptstart" INT LONG PROP(
"description" "The starting bit when repeating. The data repeats from the specified bit to the end of the bit string. The parameter should be an integer from 1 to the length of the bit string"
)
"rpttimes" INT LONG PROP(
"description" "The repeat times. The output will maitain the state of the last bit after the last repeat. If its value is negative, the string repeats forever"
)
"seed" INT LONG PROP(
"units" "s"
"description" "The seed to generate random count for the waveform"
)
"num" INT LONG PROP(
"description" "Port number"
)
"type" INT BYTE PROP(
"description" "Waveform type"
)
"edgetype" INT BYTE PROP(
"description" "Type of the rising and falling edges. This is for pulse waveform and pulse-like piecewise linear waveform"
)
"pwlfilter" INT BYTE PROP(
"description" "Add filter to pwl source, where the pwl data should be equal space sampled. Possible values are 'nrc'(normal raised cosine filter) and 'none'"
)
"allbrkpts" INT BYTE PROP(
"description" "All the points in the PWL waveform are breakpoints if set to yes. Default is yes if the number of points is less than 20"
)
"isnoisy" INT BYTE PROP(
"description" "Should port generate noise"
)
) PROP(
"key" "inst"
)
"resistor~instparams" STRUCT(
"r" FLOAT DOUBLE PROP(
"units" "Ohm"
"description" "Resistance"
)
"l" FLOAT DOUBLE PROP(
"units" "m"
"description" "Resistor length"
)
"w" FLOAT DOUBLE PROP(
"units" "m"
"description" "Resistor width"
)
"m" FLOAT DOUBLE PROP(
"description" "Multiplicity factor"
)
"scale" FLOAT DOUBLE PROP(
"description" "Scale factor"
)
"tc1" FLOAT DOUBLE PROP(
"units" "1/C"
"description" "Linear temperature coefficient(alias=lv3,tc1r)"
)
"tc1r" FLOAT DOUBLE PROP(
"units" "1/C"
"description" "Alias for tc1"
)
"tc2" FLOAT DOUBLE PROP(
"units" "C^-2"
"description" "Quadratic temperature coefficient(alias=lv4,tc2r)"
)
"tc2r" FLOAT DOUBLE PROP(
"units" "C^-2"
"description" "Alias for tc2"
)
"trise" FLOAT DOUBLE PROP(
"units" "C"
"description" "Temperature rise from ambient"
)
"bv_max" FLOAT DOUBLE PROP(
"units" "V"
"description" "Maximum allowed voltage cross two termials"
)
"c" FLOAT DOUBLE PROP(
"units" "F"
"description" "Capacitance"
)
"tc1c" FLOAT DOUBLE PROP(
"units" "1/C"
"description" "Linear temperature coefficient of capacitor"
)
"tc2c" FLOAT DOUBLE PROP(
"units" "C^-2"
"description" "Quadratic temperature coefficient of capacitor"
)
"rac" FLOAT DOUBLE PROP(
"units" "Ohm"
"description" "Default AC resistance, (alias=ac)"
)
"scaler" FLOAT DOUBLE PROP(
"description" "Resistance scaling factor"
)
"scalec" FLOAT DOUBLE PROP(
"description" "Capacitance scaling factor"
)
"dtemp" FLOAT DOUBLE PROP(
"units" "C"
"description" "Alias of Temperature rise from ambient"
)
"cap" FLOAT DOUBLE PROP(
"units" "F"
"description" "Alias of capacitance"
)
"resform" INT BYTE PROP(
"description" "Use the resistance form for this instance.  Default is `yes' if `r < thresh'"
)
"isnoisy" INT BYTE PROP(
"description" "Should resistor generate noise"
)
) PROP(
"key" "inst"
)
"vsource~instparams" STRUCT(
"dc" FLOAT DOUBLE PROP(
"units" "V"
"description" "DC value"
)
"delay" FLOAT DOUBLE PROP(
"units" "s"
"description" "Waveform delay time"
)
"val0" FLOAT DOUBLE PROP(
"units" "V"
"description" "Zero value used in pulse and exponential waveforms"
)
"val1" FLOAT DOUBLE PROP(
"units" "V"
"description" "One value used in pulse and exponential waveforms"
)
"period" FLOAT DOUBLE PROP(
"units" "s"
"description" "Period of waveform"
)
"rise" FLOAT DOUBLE PROP(
"units" "s"
"description" "Rise time for pulse waveform (time for transition from `val0' to `val1'). If parameter rise is not given, then the rise time  will be the same as fall time; if fall time is not given either, then the rise time will be 1/100 of the waveform period; if the waveform is not periodic, then the rise time will be 1/100 of the simulation interval"
)
"fall" FLOAT DOUBLE PROP(
"units" "s"
"description" "Fall time for pulse waveform (time for transition from `val1' to `val0'). If parameter fall is not given, then the fall time  will be the same as rise time; if rise time is not given either, then the fall time will be 1/100 of the waveform period; if the waveform is not periodic, then the fall time will be 1/100 of the simulation interval"
)
"width" FLOAT DOUBLE PROP(
"units" "s"
"description" "Pulse width (duration of `val1')"
)
"offset" FLOAT DOUBLE PROP(
"units" "V"
"description" "DC offset for the PWL waveform"
)
"scale" FLOAT DOUBLE PROP(
"description" "Scale factor for the PWL waveform"
)
"stretch" FLOAT DOUBLE PROP(
"description" "Scale factor for time given for the PWL waveform"
)
"rms" FLOAT DOUBLE PROP(
"description" "Desired rms(root of mean squre) value of the PWL waveform"
)
"rolloff" FLOAT DOUBLE PROP(
"description" "Desired rolloff factor for the raised cosine filter, default value is 0.2. Only valid when 'pwlfilter' is set to nrc"
)
"pwlbandwidth" FLOAT DOUBLE PROP(
"description" "Bandwith of the pwl input signal. Be used when 'pwlfilter' is set to nrc"
)
"pwlperiod" FLOAT DOUBLE PROP(
"units" "s"
"description" "Period of the periodic PWL waveform"
)
"pwlperiodstart" FLOAT DOUBLE PROP(
"units" "s"
"description" "Period start time of the periodic PWL waveform"
)
"twidth" FLOAT DOUBLE PROP(
"units" "s"
"description" "Transition width used when making PWL waveforms periodic"
)
"sinedc" FLOAT DOUBLE PROP(
"units" "V"
"description" "DC level for sinusoidal waveforms"
)
"ampl" FLOAT DOUBLE PROP(
"units" "V"
"description" "Peak amplitude of sinusoidal waveform"
)
"freq" FLOAT DOUBLE PROP(
"units" "Hz"
"description" "Frequency of sinusoidal waveform"
)
"sinephase" FLOAT DOUBLE PROP(
"units" "Deg"
"description" "Phase of sinusoid when `t=delay'"
)
"ampl2" FLOAT DOUBLE PROP(
"units" "V"
"description" "Peak amplitude of second sinusoidal waveform"
)
"freq2" FLOAT DOUBLE PROP(
"units" "Hz"
"description" "Frequency of second sinusoidal waveform"
)
"sinephase2" FLOAT DOUBLE PROP(
"units" "Deg"
"description" "Phase of second sinusoid when `t=delay'"
)
"fmmodindex" FLOAT DOUBLE PROP(
"description" "FM index of modulation for sinusoidal waveform"
)
"fmmodfreq" FLOAT DOUBLE PROP(
"units" "Hz"
"description" "FM modulation frequency for sinusoidal waveform"
)
"ammodindex" FLOAT DOUBLE PROP(
"description" "AM index of modulation for sinusoidal waveform"
)
"ammodoffset" FLOAT DOUBLE PROP(
"description" "AM offset of modulation for sinusoidal waveform"
)
"ammodfreq" FLOAT DOUBLE PROP(
"units" "Hz"
"description" "AM modulation frequency for sinusoidal waveform"
)
"ammodphase" FLOAT DOUBLE PROP(
"units" "Deg"
"description" "AM phase of modulation for sinusoidal waveform"
)
"damp" FLOAT DOUBLE PROP(
"units" "1/s"
"description" "Damping factor for sinusoidal waveform"
)
"td1" FLOAT DOUBLE PROP(
"units" "s"
"description" "Rise start time for exponential wave"
)
"tau1" FLOAT DOUBLE PROP(
"units" "s"
"description" "Rise time constant for exponential wave"
)
"td2" FLOAT DOUBLE PROP(
"units" "s"
"description" "Fall start time for exponential wave"
)
"tau2" FLOAT DOUBLE PROP(
"units" "s"
"description" "Fall time constant for exponential wave"
)
"ref" FLOAT DOUBLE PROP(
"units" "V"
"description" "Ref value. When the voltage on the control node is smaller than the ref value, prbs is turned off."
)
"jitter" FLOAT DOUBLE PROP(
"units" "s"
"description" "Waveform random delay time"
)
"mag" FLOAT DOUBLE PROP(
"units" "V"
"description" "Small signal voltage"
)
"phase" FLOAT DOUBLE PROP(
"units" "Deg"
"description" "Small signal phase"
)
"xfmag" FLOAT DOUBLE PROP(
"units" "V/V"
"description" "Transfer function analysis magnitude"
)
"pacmag" FLOAT DOUBLE PROP(
"units" "V"
"description" "Periodic AC analysis magnitude"
)
"pacphase" FLOAT DOUBLE PROP(
"units" "Deg"
"description" "Periodic AC analysis phase"
)
"m" FLOAT DOUBLE PROP(
"description" "Multiplicity factor"
)
"tc1" FLOAT DOUBLE PROP(
"units" "1/C"
"description" "First order temperature coefficient"
)
"tc2" FLOAT DOUBLE PROP(
"units" "C^-2"
"description" "Second order temperature coefficient"
)
"tnom" FLOAT DOUBLE PROP(
"units" "C"
"description" "Parameter measurement temperature. Default set by options"
)
"rptstart" INT LONG PROP(
"description" "The starting bit when repeating. The data repeats from the specified bit to the end of the bit string. The parameter should be an integer from 1 to the length of the bit string"
)
"rpttimes" INT LONG PROP(
"description" "The repeat times. The output will maitain the state of the last bit after the last repeat. If its value is negative, the string repeats forever"
)
"seed" INT LONG PROP(
"units" "s"
"description" "The seed to generate random count for the waveform"
)
"type" INT BYTE PROP(
"description" "Waveform type"
)
"edgetype" INT BYTE PROP(
"description" "Type of the rising and falling edges. This is for pulse waveform and pulse-like piecewise linear waveform"
)
"pwlfilter" INT BYTE PROP(
"description" "Add filter to pwl source, where the pwl data should be equal space sampled. Possible values are 'nrc'(normal raised cosine filter) and 'none'"
)