HEADER
"PSFversion" "1.00"
"simulator" "spectre"
"version" "10.1.1.128.isr9"
"date" "7:26:28 PM, Fri May 15, 2015"
"design" "// Generated by PySpectre"
"analysis type" "info"
"analysis name" "finalTimeOP"
"analysis description" "Circuit Information"
"xVecSorted" "unsorted"
"tolerance.relative" 0.00100000
"AnalysisName" "Tran"
"AnalysisType" "tran"
"OpPointTemp.Value" 27.0000
"OpPointTemp.Units" "C"
"ParameterName" "time"
"ParameterValue" 1.00000e-07
"ParameterUnits" "s"
TYPE
"bsim4" STRUCT(
"ids" FLOAT DOUBLE PROP(
"units" "A"
"description" "Resistive drain-to-source current"
)
"vgs" FLOAT DOUBLE PROP(
"units" "V"
"description" "Gate-source voltage"
)
"vds" FLOAT DOUBLE PROP(
"units" "V"
"description" "Drain-source voltage"
)
"vbs" FLOAT DOUBLE PROP(
"units" "V"
"description" "Bulk-source voltage"
)
"vgd" FLOAT DOUBLE PROP(
"units" "V"
"description" "Gate-drain voltage"
)
"vdb" FLOAT DOUBLE PROP(
"units" "V"
"description" "Drain-bulk voltage"
)
"vgb" FLOAT DOUBLE PROP(
"units" "V"
"description" "Gate-bulk voltage"
)
"vth" FLOAT DOUBLE PROP(
"units" "V"
"description" "Threshold voltage (alias=lv9)"
)
"vdsat" FLOAT DOUBLE PROP(
"units" "V"
"description" "Drain-source saturation voltage (alias=lv10)"
)
"gm" FLOAT DOUBLE PROP(
"units" "S"
"description" "Common-source transconductance (alias=lx7)"
)
"gds" FLOAT DOUBLE PROP(
"units" "S"
"description" "Common-source output conductance (alias=lx8)"
)
"gmbs" FLOAT DOUBLE PROP(
"units" "S"
"description" "Body-transconductance (alias=lx9)"
)
"betaeff" FLOAT DOUBLE PROP(
"units" "A/V^2"
"description" "Effective beta (alias LV21)"
)
"cjd" FLOAT DOUBLE PROP(
"units" "F"
"description" "Drain-bulk junction capacitance (alias=lx29)"
)
"cjs" FLOAT DOUBLE PROP(
"units" "F"
"description" "Source-bulk junction capacitance (alias=lx28)"
)
"cgg" FLOAT DOUBLE PROP(
"units" "F"
"description" "Total gate capacitance, including intrinsic, overlap and fringing components (alias=lx82)"
)
"cgd" FLOAT DOUBLE PROP(
"units" "F"
"description" "Total gate-to-drain capacitance, including intrinsic, overlap, and fringing components (alias=lx83)"
)
"cgs" FLOAT DOUBLE PROP(
"units" "F"
"description" "Total gate-to-source capacitance, including intrinsic, overlap, and fringing components (alias=lx84)"
)
"cgb" FLOAT DOUBLE PROP(
"units" "F"
"description" "Total gate-to-bulk capacitance, including intrinsic and overlap components"
)
"cdg" FLOAT DOUBLE PROP(
"units" "F"
"description" "Total drain-to-gate capacitance, including intrinsic, overlap, and fringing components (alias=lx87)"
)
"cdd" FLOAT DOUBLE PROP(
"units" "F"
"description" "Drain capacitance, including intrinsic, overlap, and fringing components"
)
"cds" FLOAT DOUBLE PROP(
"units" "F"
"description" "Total drain-to-source capacitance (alias=lx86)"
)
"cdb" FLOAT DOUBLE PROP(
"units" "F"
"description" "Intrinsic drain-to-bulk capacitance"
)
"csg" FLOAT DOUBLE PROP(
"units" "F"
"description" "Total source-to-gate capacitance, including intrinsic, overlap, and fringing components"
)
"csd" FLOAT DOUBLE PROP(
"units" "F"
"description" "Total source-to-drain capacitance"
)
"css" FLOAT DOUBLE PROP(
"units" "F"
"description" "Source capacitance, including intrinsic, overlap, and fringing components"
)
"csb" FLOAT DOUBLE PROP(
"units" "F"
"description" "Intrinsic source-to-bulk capacitance"
)
"cbg" FLOAT DOUBLE PROP(
"units" "F"
"description" "Total bulk-to-gate capacitance, including intrinsic and overlap components (alias=lx88)"
)
"cbd" FLOAT DOUBLE PROP(
"units" "F"
"description" "Intrinsic bulk-to-drain capacitance"
)
"cbs" FLOAT DOUBLE PROP(
"units" "F"
"description" "Intrinsic bulk-to-source capacitance"
)
"cbb" FLOAT DOUBLE PROP(
"units" "F"
"description" "Bulk capacitance, including intrinsic and overlap components"
)
"covlgs" FLOAT DOUBLE PROP(
"units" "F/m"
"description" "Gate-source overlap and fringing capacitances (alias=lv36)"
)
"covlgd" FLOAT DOUBLE PROP(
"units" "F/m"
"description" "Gate-drain overlap and fringing capacitances (alias=lv37)"
)
"covlgb" FLOAT DOUBLE PROP(
"units" "F/m"
"description" "Gate-bulk overlap capacitances (alias=lv38)"
)
"cggbo" FLOAT DOUBLE PROP(
"units" "F"
"description" "CGGBO = dQg/dVg intrinsic gate capacitance (alias=lx18)"
)
"cgdbo" FLOAT DOUBLE PROP(
"units" "F"
"description" "CGDBO = -dQg/dVd intrinsic gate-to-drain capacitance (alias=lx19)"
)
"cgsbo" FLOAT DOUBLE PROP(
"units" "F"
"description" "CGSBO = -dQg/dVs intrinsic gate-to-source capacitance (alias=lx20)"
)
"cbgbo" FLOAT DOUBLE PROP(
"units" "F"
"description" "CBGBO = -dQb/dVg intrinsic bulk-to-gate capacitance (alias=lx21)"
)
"cbdbo" FLOAT DOUBLE PROP(
"units" "F"
"description" "CBDBO = -dQb/dVd intrinsic bulk-to-drain capacitance (alias=lx22)"
)
"cbsbo" FLOAT DOUBLE PROP(
"units" "F"
"description" "CBSBO = -dQb/dVs intrinsic bulk-to-source capacitance (alias=lx23)"
)
"cdgbo" FLOAT DOUBLE PROP(
"units" "F"
"description" "CDGBO = -dQd/dVg intrinsic drain-to-gate capacitance (alias=lx32)"
)
"cddbo" FLOAT DOUBLE PROP(
"units" "F"
"description" "CDDBO = dQd/dVd intrinsic drain capacitance (alias=lx33)"
)
"cdsbo" FLOAT DOUBLE PROP(
"units" "F"
"description" "CDSBO = -dQd/dVs intrinsic drain-to-source capacitance (alias=lx34)"
)
"ron" FLOAT DOUBLE PROP(
"units" "Ohm"
"description" "On-resistance"
)
"id" FLOAT DOUBLE PROP(
"units" "A"
"description" "Resistive drain current"
)
"ibulk" FLOAT DOUBLE PROP(
"units" "A"
"description" "Resistive bulk current"
)
"pwr" FLOAT DOUBLE PROP(
"units" "W"
"description" "Power at op point"
)
"gmoverid" FLOAT DOUBLE PROP(
"units" "1/V"
"description" "Gm/Ids"
)
"rdeff" FLOAT DOUBLE PROP(
"units" "Ohm"
"description" "Effective drain resistance"
)
"rseff" FLOAT DOUBLE PROP(
"units" "Ohm"
"description" "Effective source resistance"
)
"rgbd" FLOAT DOUBLE PROP(
"units" "Ohm"
"description" "Gate bias-dependent resistance"
)
"igidl" FLOAT DOUBLE PROP(
"units" "A"
"description" "Gate-induced drain leakage current (alias=lx70)"
)
"igisl" FLOAT DOUBLE PROP(
"units" "A"
"description" "Gate-induced source leakage current"
)
"igdt" FLOAT DOUBLE PROP(
"units" "A"
"description" "Gate Dielectric tunneling current (alias=lx71)"
)
"igd" FLOAT DOUBLE PROP(
"units" "A"
"description" "Gate-to-drain tunneling current (alias=lx39)"
)
"igs" FLOAT DOUBLE PROP(
"units" "A"
"description" "Gate-to-source tunneling current (alias=lx38)"
)
"igb" FLOAT DOUBLE PROP(
"units" "A"
"description" "Gate-to-bulk tunneling current (alias=lx66)"
)
"igbacc" FLOAT DOUBLE PROP(
"units" "A"
"description" "Gate-to-bulk tunneling current determined by ECB (alias=lx73)"
)
"igbinv" FLOAT DOUBLE PROP(
"units" "A"
"description" "Gate-to-bulk tunneling current determined by EVB (alias=lx74)"
)
"igcs" FLOAT DOUBLE PROP(
"units" "A"
"description" "Gate-to-channel (source side) tunneling current (alias=lx67)"
)
"igcd" FLOAT DOUBLE PROP(
"units" "A"
"description" "Gate-to-channel (drain side) tunneling current (alias=lx68)"
)
"gbs" FLOAT DOUBLE PROP(
"units" "S"
"description" "Bulk-source diode conductance (alias=lx11)"
)
"gbd" FLOAT DOUBLE PROP(
"units" "S"
"description" "Bulk-drain diode conductance (alias=lx10)"
)
"region" INT BYTE PROP(
"description" "Estimated operating region. %Z outputs the number (0-4) in a rawfile"
)
"reversed" INT BYTE PROP(
"description" "Reverse mode indicator"
)
) PROP(
"key" "inst"
)
"capacitor" STRUCT(
"cap" FLOAT DOUBLE PROP(
"units" "F"
"description" "Capacitance at operating point"
)
) PROP(
"key" "inst"
)
"isource" STRUCT(
"i" FLOAT DOUBLE PROP(
"units" "A"
"description" "Current through the source"
)
"v" FLOAT DOUBLE PROP(
"units" "V"
"description" "Voltage across the source"
)
"pwr" FLOAT DOUBLE PROP(
"units" "W"
"description" "Power dissipation"
)
) PROP(
"key" "inst"
)
"resistor" STRUCT(
"v" FLOAT DOUBLE PROP(
"units" "V"
"description" "Voltage at operating point"
)
"i" FLOAT DOUBLE PROP(
"units" "A"
"description" "Current through the resistor"
)
"res" FLOAT DOUBLE PROP(
"units" "Ohm"
"description" "Resistance at op point"
)
"pwr" FLOAT DOUBLE PROP(
"units" "W"
"description" "Power dissipation"
)
) PROP(
"key" "inst"
)
"vsource" STRUCT(
"v" FLOAT DOUBLE PROP(
"units" "V"
"description" "Voltage across the source"
)
"i" FLOAT DOUBLE PROP(
"units" "A"
"description" "Current through the source"
)
"pwr" FLOAT DOUBLE PROP(
"units" "W"
"description" "Power dissipation"
)
) PROP(
"key" "inst"
)
VALUE
"M0" "bsim4" (
9.999997989961820e-05
5.647286163719950e-01
5.647286163719950e-01
0.000000000000000e+00
0.000000000000000e+00
5.647286163719950e-01
5.647286163719950e-01
3.689895147476367e-01
1.579449997561640e-01
6.920685511830248e-04
1.963091419323752e-05
1.660702305125907e-04
6.255137585659420e-03
4.313254916518834e-16
8.000000000002781e-16
2.474309844938294e-15
-5.023696451484659e-16
-1.895436444064125e-15
-7.650375572570367e-17
-9.373674518039862e-16
5.130767370388679e-16
5.192239634010936e-16
-9.493324863597526e-17
-1.230938925508218e-15
-1.027284435252940e-17
1.383219621483482e-15
-1.420078516227348e-16
-3.060034676260899e-16
-4.342475378726869e-19
-7.007140820451194e-18
3.134448559844137e-16
6.056922179434059e-16
5.193800028569116e-16
2.534400000000001e-18
1.346703224137977e-15
1.701035770844576e-17
-1.289744226120719e-15
-3.034690676260898e-16
-4.342475378726869e-19
-7.007140820451197e-18
-4.179874489470747e-16
-6.303265818043669e-18
5.192239634010936e-16
5.647287298846259e+03
9.999997107038925e-05
-6.259612254180517e-14
5.647284529982045e-05
6.920686902914738e+00
0.000000000000000e+00
0.000000000000000e+00
0.000000000000000e+00
0.000000000000000e+00
0.000000000000000e+00
2.780074546292629e-11
-4.182410991343158e-25
8.181779557925401e-12
1.797394039707360e-18
1.797394039707360e-18
1.797394039232580e-18
1.072714084032012e-11
8.891823267287151e-12
1.004252985126576e-12
1.000000000127276e-12
2
0
) PROP(
"model" "nmos"
)
"I0.C0" "capacitor" (
1.000000000000000e-12
) PROP(
"model" "capacitor"
)
"I1.I0.C0" "capacitor" (
2.100000000000000e-12
) PROP(
"model" "capacitor"
)
"I1.I3.C0" "capacitor" (
1.200000000000000e-12
) PROP(
"model" "capacitor"
)
"I10" "isource" (
1.000000000000000e-04
-5.647286163719950e-01
-5.647286163719950e-05
) PROP(
"model" "isource"
)
"R0" "resistor" (
3.927413949611491e-15
7.854827899222983e-17
5.000000000000000e+01
3.084916066320587e-31
) PROP(
"model" "resistor"
)
"I0.R0" "resistor" (
1.510594417649012e-01
1.510594417649012e-04
1.000000000000000e+03
2.281895494632357e-05
) PROP(
"model" "resistor"
)
"I1.I0.R0" "resistor" (
-1.507956022452238e-01
-2.123881721763715e-05
7.100000000000000e+03
3.202720233309823e-06
) PROP(
"model" "resistor"
)
"I1.I3.R0" "resistor" (
-6.124922971934561e-04
-6.124922971934562e-07
1.000000000000000e+03
3.751468141213170e-10
) PROP(
"model" "resistor"
)
"V0" "vsource" (
3.928773447456944e-15
-1.510594417649012e-04
-5.934783237936122e-19
) PROP(
"model" "vsource"
)
END
