HEADER
"PSFversion" "1.00"
"Log Generator" "drlLog rev. 1.0"
"Log Time Stamp" "Fri May 15 19:26:28 2015"
"simulator" "spectre"
"version" "10.1.1.128.isr9"
"date" "7:26:28 PM, Fri May 15, 2015"
"design" "// Generated by PySpectre"
"signalNameType" "spectre"
"measdgt" 0
"ingold" 2
"sst2usecolon" 0
TYPE
"analysisInst" STRUCT(
"analysisType" STRING *
"dataFile" STRING *
"format" STRING *
"parent" STRING *
"sweepVariable" ARRAY ( * ) STRING *
"description" STRING *
)
VALUE
"tran-tran" "analysisInst" (
"tran"
"tran.tran"
"PSF"
""
("time")
"Transient Analysis `tran': time = (0 s -> 100 ns)"
) PROP(
"data_type" "swept_scalar"
)

"finalTimeOP-info" "analysisInst" (
"info"
"finalTimeOP.info"
"PSF"
""
()
"Circuit Information"
) PROP(
"data_type" "struct"
)

"dcOp-sens.dc" "analysisInst" (
"dc"
"dcOp.sens.dc"
"PSF"
""
()
"DC Analysis `dcOp' - Sensitivity"
) PROP(
"data_type" "swept_struct"
)

"dcOp-dc" "analysisInst" (
"dc"
"dcOp.dc"
"PSF"
""
()
"DC Analysis `dcOp'"
) PROP(
"data_type" "scalar"
)

"dcOpInfo-info" "analysisInst" (
"info"
"dcOpInfo.info"
"PSF"
""
()
"Circuit Information"
) PROP(
"data_type" "struct"
)

"dc-dc" "analysisInst" (
"dc"
"dc.dc"
"PSF"
""
("RL")
"DC Analysis `dc': RL = (1 -> 100)"
) PROP(
"data_type" "scalar"
)

"dc-sens.dc" "analysisInst" (
"dc"
"dc.sens.dc"
"PSF"
""
("RL")
"DC Analysis `dc': RL = (1 -> 100) - Sensitivity"
) PROP(
"data_type" "swept_struct"
)

"ac-ac" "analysisInst" (
"ac"
"ac.ac"
"PSF"
""
("freq")
"AC Analysis `ac': freq = (1 Hz -> 1 THz)"
) PROP(
"data_type" "swept_scalar"
)

"noise-noise" "analysisInst" (
"noise"
"noise.noise"
"PSF"
""
("RL")
"Noise Analysis `noise': freq = 1 Hz, RL = (1 -> 5e+03)"
) PROP(
"data_type" "swept_struct"
)

"xf-xf" "analysisInst" (
"xf"
"xf.xf"
"PSF"
""
("freq")
"Transfer Function Analysis `xf': freq = (1 Hz -> 1 THz)"
) PROP(
"data_type" "swept_scalar"
)

"modelParameter-info" "analysisInst" (
"info"
"modelParameter.info"
"PSF"
""
()
"Circuit Information"
) PROP(
"data_type" "struct"
)

"element-info" "analysisInst" (
"info"
"element.info"
"PSF"
""
()
"Circuit Information"
) PROP(
"data_type" "struct"
)

"outputParameter-info" "analysisInst" (
"info"
"outputParameter.info"
"PSF"
""
()
"Circuit Information"
) PROP(
"data_type" "struct"
)

"designParamVals-info" "analysisInst" (
"info"
"designParamVals.info"
"PSF"
""
()
"Circuit Information"
) PROP(
"data_type" "struct"
)

"primitives-info.primitives" "analysisInst" (
"info.primitives"
"primitives.info.primitives"
"PSF"
""
()
"Circuit Information"
)
END
