HEADER
"PSFversion" "1.00"
"simulator" "spectre"
"version" "10.1.1.128.isr9"
"date" "7:26:28 PM, Fri May 15, 2015"
"design" "// Generated by PySpectre"
"analysis type" "info"
"analysis name" "modelParameter"
"analysis description" "Circuit Information"
"xVecSorted" "unsorted"
"tolerance.relative" 0.00100000
TYPE
"bsim4" STRUCT(
"version" FLOAT DOUBLE PROP(
"description" "Model version selector. The available versions are 4.21, 4.30, 4.40, 4.50, 4.60, 4.61, 4.62, 4.63, 4.64, 4.65, and 4.70"
)
"minr" FLOAT DOUBLE PROP(
"units" "Ohm"
"description" "Minimum source/drain resistance"
)
"epsrox" FLOAT DOUBLE PROP(
"description" "Gate dielectric constant"
)
"epsrgate" FLOAT DOUBLE PROP(
"description" "Dielectric constant of gate relative to vacuum"
)
"epsrsub" FLOAT DOUBLE PROP(
"description" "Dielectric constant of substrate relative to vacuum"
)
"eot" FLOAT DOUBLE PROP(
"units" "m"
"description" "Equivalent gate oxide thickness in meters"
)
"toxe" FLOAT DOUBLE PROP(
"units" "m"
"description" "Electrical gate equivalent oxide thickness"
)
"toxp" FLOAT DOUBLE PROP(
"units" "m"
"description" "Physical gate equivalent oxide thickness"
)
"toxm" FLOAT DOUBLE PROP(
"units" "m"
"description" "Toxe at which parameters were extracted"
)
"dtox" FLOAT DOUBLE PROP(
"units" "m"
"description" "Difference between electrical and physical gate oxide thickness"
)
"xj" FLOAT DOUBLE PROP(
"units" "m"
"description" "Source/drain junction depth"
)
"gamma1" FLOAT DOUBLE PROP(
"units" "sqrt(V)"
"description" "Body-effect coefficient near the surface"
)
"gamma2" FLOAT DOUBLE PROP(
"units" "sqrt(V)"
"description" "Body-effect coefficient in the bulk"
)
"ndep" FLOAT DOUBLE PROP(
"units" "cm^-3"
"description" "Channel doping concentration at depletion edge for zero body bias"
)
"nsub" FLOAT DOUBLE PROP(
"units" "cm^-3"
"description" "Substrate doping concentration"
)
"ngate" FLOAT DOUBLE PROP(
"units" "cm^-3"
"description" "Poly Si gate doping concentration"
)
"nsd" FLOAT DOUBLE PROP(
"units" "cm^-3"
"description" "Source-drain doping concentration"
)
"vbx" FLOAT DOUBLE PROP(
"units" "V"
"description" "Vbs at which the depletion region width equals XT"
)
"xt" FLOAT DOUBLE PROP(
"units" "m"
"description" "Doping depth"
)
"rsh" FLOAT DOUBLE PROP(
"units" "Ohm/sqr"
"description" "Source/drain sheet resistance"
)
"rshg" FLOAT DOUBLE PROP(
"units" "Ohm/sqr"
"description" "Gate electrode sheet resistance"
)
"lint" FLOAT DOUBLE PROP(
"units" "m"
"description" "Lateral diffusion for one side"
)
"wint" FLOAT DOUBLE PROP(
"units" "m"
"description" "Width reduction for one side"
)
"wl" FLOAT DOUBLE PROP(
"units" "m^wln"
"description" "Length dependence of delta W"
)
"wln" FLOAT DOUBLE PROP(
"description" "Length exponent of delta W"
)
"ww" FLOAT DOUBLE PROP(
"units" "m^wwn"
"description" "Width dependence of delta W"
)
"wwn" FLOAT DOUBLE PROP(
"description" "Width exponent of delta W"
)
"wwl" FLOAT DOUBLE PROP(
"units" "m^(wwn+wln)"
"description" "Area dependence of delta W"
)
"ll" FLOAT DOUBLE PROP(
"units" "m^lln"
"description" "Length dependence of delta L"
)
"lln" FLOAT DOUBLE PROP(
"description" "Length exponent of delta L"
)
"lw" FLOAT DOUBLE PROP(
"units" "m^lwn"
"description" "Width dependence of delta L"
)
"lwn" FLOAT DOUBLE PROP(
"description" "Width exponent of delta L"
)
"lwl" FLOAT DOUBLE PROP(
"units" "m^(lln+lwn)"
"description" "Area dependence of delta L"
)
"dwg" FLOAT DOUBLE PROP(
"units" "m/V"
"description" "Gate-bias dependence of channel width"
)
"dwb" FLOAT DOUBLE PROP(
"units" "m/sqrt(V)"
"description" "Body-bias dependence of channel width"
)
"lmlt" FLOAT DOUBLE PROP(
"description" "Length shrink reduction factor"
)
"wmlt" FLOAT DOUBLE PROP(
"description" "Width shrink reduction factor"
)
"vtho" FLOAT DOUBLE PROP(
"units" "V"
"description" "Threshold voltage at Vbs=0 for long-channel devices. Alias of vth0"
)
"vfb" FLOAT DOUBLE PROP(
"units" "V"
"description" "Flat-band voltage"
)
"vddeot" FLOAT DOUBLE PROP(
"units" "V"
"description" "Voltage for extraction of Equivalent gate oxide thickness"
)
"phin" FLOAT DOUBLE PROP(
"units" "V"
"description" "Non-uniform vertical doping effect on surface potential"
)
"k1" FLOAT DOUBLE PROP(
"units" "sqrt(V)"
"description" "First-order body bias coefficient"
)
"k2" FLOAT DOUBLE PROP(
"description" "Second-order body bias coefficient"
)
"k3" FLOAT DOUBLE PROP(
"description" "Narrow width coefficient"
)
"k3b" FLOAT DOUBLE PROP(
"units" "1/V"
"description" "Body effect coefficient of K3"
)
"w0" FLOAT DOUBLE PROP(
"units" "m"
"description" "Narrow width coefficient"
)
"lpe0" FLOAT DOUBLE PROP(
"units" "m"
"description" "Lateral non-uniform doping at Vbs=0"
)
"lpeb" FLOAT DOUBLE PROP(
"units" "m"
"description" "Lateral non-uniform doping effect on K1"
)
"vbm" FLOAT DOUBLE PROP(
"units" "V"
"description" "Maximum applied body voltage in VTH0 calculation"
)
"dvt0" FLOAT DOUBLE PROP(
"description" "First coefficient of short-channel effects"
)
"dvt1" FLOAT DOUBLE PROP(
"description" "Second coefficient of short-channel effects"
)
"dvt2" FLOAT DOUBLE PROP(
"units" "1/V"
"description" "Body-bias coefficient of short-channel effects"
)
"dvtp0" FLOAT DOUBLE PROP(
"units" "m"
"description" "First coefficient of drain-induced Vth shift for long-channel pocket devices"
)
"dvtp1" FLOAT DOUBLE PROP(
"units" "1/V"
"description" "Second coefficient of drain-induced Vth shift for long-channel pocket devices"
)
"dvtp2" FLOAT DOUBLE PROP(
"description" "3rd parameter for Vth shift due to pocket"
)
"dvtp3" FLOAT DOUBLE PROP(
"description" "4th parameter for Vth shift due to pocket"
)
"dvtp4" FLOAT DOUBLE PROP(
"description" "5th parameter for Vth shift due to pocket"
)
"dvtp5" FLOAT DOUBLE PROP(
"description" "6th parameter for Vth shift due to pocket"
)
"dvt0w" FLOAT DOUBLE PROP(
"description" "First coefficient of narrow-width effects"
)
"dvt1w" FLOAT DOUBLE PROP(
"units" "1/m"
"description" "Second coefficient of narrow-width effects"
)
"dvt2w" FLOAT DOUBLE PROP(
"units" "1/V"
"description" "Body-bias coefficient of narrow-width effects"
)
"a0" FLOAT DOUBLE PROP(
"description" "Nonuniform depletion width effect coefficient"
)
"ags" FLOAT DOUBLE PROP(
"units" "1/V"
"description" "Gate-bias dependence of Abulk"
)
"b0" FLOAT DOUBLE PROP(
"units" "m"
"description" "Bulk charge coefficient due to narrow width effect"
)
"b1" FLOAT DOUBLE PROP(
"units" "m"
"description" "Bulk charge coefficient due to narrow width effect"
)
"keta" FLOAT DOUBLE PROP(
"units" "1/V"
"description" "Body-bias coefficient for non-uniform depletion width effect"
)
"a1" FLOAT DOUBLE PROP(
"units" "1/V"
"description" "First non-saturation effect parameter"
)
"a2" FLOAT DOUBLE PROP(
"description" "Second non-saturation factor"
)
"phig" FLOAT DOUBLE PROP(
"units" "eV"
"description" "The gate work function"
)
"ni0sub" FLOAT DOUBLE PROP(
"units" "cm^-3"
"description" "Intrinsic carrier concentration at T=300.15K"
)
"bg0sub" FLOAT DOUBLE PROP(
"units" "eV"
"description" "Band-gap of substrate at T=0K"
)
"tbgasub" FLOAT DOUBLE PROP(
"units" "V/K"
"description" "First parameter of band-gap change due to temperature"
)
"tbgbsub" FLOAT DOUBLE PROP(
"units" "K"
"description" "Second parameter of bandgap change due to temperature"
)
"ados" FLOAT DOUBLE PROP(
"description" "Charge centroid parameter"
)
"bdos" FLOAT DOUBLE PROP(
"description" "Charge centroid parameter"
)
"tempeot" FLOAT DOUBLE PROP(
"units" "C"
"description" "Temperature for extraction of EOT"
)
"leffeot" FLOAT DOUBLE PROP(
"units" "m"
"description" "Effective length for extraction of EOT"
)
"weffeot" FLOAT DOUBLE PROP(
"units" "m"
"description" "Effective width for extraction of EOT"
)
"ivth" FLOAT DOUBLE PROP(
"units" "A"
"description" "Vth current parameter. The default value is taken from the options parameter 'ivthn' or 'ivthp', depending on the type of the model"
)
"ivthw" FLOAT DOUBLE PROP(
"units" "m"
"description" "Width offset for constant current Vth. The default value is taken from the options parameter 'ivthw'"
)
"ivthl" FLOAT DOUBLE PROP(
"units" "m"
"description" "Length offset for constant current Vth. The default value is taken from the options parameter 'ivthl'"
)
"ivth_vdsmin" FLOAT DOUBLE PROP(
"units" "V"
"description" "Minimum Vds in constant current Vth calculating. The default value is taken from the options parameter 'ivth_vdsmin'"
)
"hdif" FLOAT DOUBLE PROP(
"units" "m"
"description" "Length of heavily doped diffusion"
)
"ldif" FLOAT DOUBLE PROP(
"units" "m"
"description" "Lateral diffusion beyond the gate"
)
"rs" FLOAT DOUBLE PROP(
"units" "Ohm"
"description" "Source resistance"
)
"rd" FLOAT DOUBLE PROP(
"units" "Ohm"
"description" "Drain resistance"
)
"ld" FLOAT DOUBLE PROP(
"units" "m"
"description" "Lateral diffusion into the channel from the source and drain diffusion"
)
"trd" FLOAT DOUBLE PROP(
"units" "1/C"
"description" "Temperature parameter for drain resistance"
)
"trs" FLOAT DOUBLE PROP(
"units" "1/C"
"description" "Temperature parameter for source resistance"
)
"u0" FLOAT DOUBLE PROP(
"units" "cm^2/V*s"
"description" "Low-field surface mobility at tnom"
)
"ua" FLOAT DOUBLE PROP(
"units" "m/V"
"description" "First-order mobility reduction coefficient"
)
"ub" FLOAT DOUBLE PROP(
"units" "m^2/V^2"
"description" "Second-order mobility reduction coefficient"
)
"uc" FLOAT DOUBLE PROP(
"description" "Body-bias dependence of mobility"
)
"ud" FLOAT DOUBLE PROP(
"units" "/m^2"
"description" "Coulomb scattering factor of mobility"
)
"up" FLOAT DOUBLE PROP(
"description" "Channel length linear factor of mobility"
)
"lp" FLOAT DOUBLE PROP(
"units" "m"
"description" "Channel length exponential factor of mobility"
)
"eu" FLOAT DOUBLE PROP(
"description" "Exponent for mobility degradation of mobmod=2"
)
"vsat" FLOAT DOUBLE PROP(
"units" "m/s"
"description" "Carrier saturation velocity at tnom"
)
"lambda" FLOAT DOUBLE PROP(
"description" "Velocity overshoot coefficient"
)
"vtl" FLOAT DOUBLE PROP(
"units" "m/s"
"description" "Thermal velocity"
)
"lc" FLOAT DOUBLE PROP(
"units" "m"
"description" "Velocity back scattering coefficient"
)
"xn" FLOAT DOUBLE PROP(
"description" "Velocity back scattering coefficient"
)
"easub" FLOAT DOUBLE PROP(
"units" "eV"
"description" "Electron affinity of substrate"
)
"ucs" FLOAT DOUBLE PROP(
"description" "Colombic scattering exponent"
)
"ucste" FLOAT DOUBLE PROP(
"description" "Temperature coefficient of colombic mobility"
)
"voff" FLOAT DOUBLE PROP(
"units" "V"
"description" "Threshold voltage offset"
)
"tvoff" FLOAT DOUBLE PROP(
"units" "V"
"description" "Temperature parameter for voff"
)
"ltvoff" FLOAT DOUBLE PROP(
"units" "V"
"description" "Length dependence of tvoff"
)
"wtvoff" FLOAT DOUBLE PROP(
"units" "V"
"description" "Width dependence of tvoff"
)
"ptvoff" FLOAT DOUBLE PROP(
"units" "V"
"description" "Cross-term dependence of tvoff"
)
"voffl" FLOAT DOUBLE PROP(
"units" "mV"
"description" "Channel-length dependence of Voff"
)
"minv" FLOAT DOUBLE PROP(
"description" "Vgsteff fitting parameter for moderate inversion condition"
)
"nfactor" FLOAT DOUBLE PROP(
"description" "Subthreshold swing coefficient"
)
"eta0" FLOAT DOUBLE PROP(
"description" "DIBL coefficient subthreshold region"
)
"etab" FLOAT DOUBLE PROP(
"units" "1/V"
"description" "Body-bias dependence of et0"
)
"dsub" FLOAT DOUBLE PROP(
"description" "DIBL effect in subthreshold region"
)
"cit" FLOAT DOUBLE PROP(
"units" "F/m^2"
"description" "Interface trap parameter for subthreshold swing"
)
"cdsc" FLOAT DOUBLE PROP(
"units" "F/m^2"
"description" "Source/drain and channel coupling capacitance"
)
"cdscb" FLOAT DOUBLE PROP(
"units" "F/m^2*V"
"description" "Body-bias dependence of cdsc"
)
"cdscd" FLOAT DOUBLE PROP(
"units" "F/m^2*V"
"description" "Drain-bias dependence of cdsc"
)
"pclm" FLOAT DOUBLE PROP(
"description" "Channel length modulation coefficient"
)
"pdiblc1" FLOAT DOUBLE PROP(
"description" "First coefficient of drain-induced barrier lowering"
)
"pdiblc2" FLOAT DOUBLE PROP(
"description" "Second coefficient of drain-induced barrier lowering"
)
"pdiblcb" FLOAT DOUBLE PROP(
"units" "1/V"
"description" "Body-effect coefficient for DIBL"
)
"drout" FLOAT DOUBLE PROP(
"description" "DIBL effect on output resistance coefficient"
)
"pscbe1" FLOAT DOUBLE PROP(
"units" "V/m"
"description" "First coefficient of substrate current body effect"
)
"pscbe2" FLOAT DOUBLE PROP(
"units" "m/V"
"description" "Second coefficient of substrate current body effect"
)
"fprout" FLOAT DOUBLE PROP(
"units" "V/sqrt(m)"
"description" "Effect of pocket implant on Rout degradation"
)
"pvag" FLOAT DOUBLE PROP(
"description" "Gate dependence of Early voltage"
)
"delta" FLOAT DOUBLE PROP(
"units" "V"
"description" "Effective drain voltage smoothing parameter"
)
"pdits" FLOAT DOUBLE PROP(
"units" "1/V"
"description" "Effect of pocket implant on Rout degradation"
)
"pditsl" FLOAT DOUBLE PROP(
"units" "1/m"
"description" "Channel-length dependence of drain-induced Vth shift on Rout"
)
"pditsd" FLOAT DOUBLE PROP(
"units" "1/V"
"description" "Vds dependence of drain-induced Vth shift on Rout"
)
"rdsw" FLOAT DOUBLE PROP(
"units" "Ohm*um^wr"
"description" "Zero bias LDD resistance per unit width for RDSMOD=0"
)
"rdswmin" FLOAT DOUBLE PROP(
"units" "Ohm*um^wr"
"description" "LDD resistance per unit width at high Vgs and zero Vbs for RDSMOD=0"
)
"rdw" FLOAT DOUBLE PROP(
"units" "Ohm*um^wr"
"description" "Zero bias LDD resistance per unit width for RDSMOD=1"
)
"rdwmin" FLOAT DOUBLE PROP(
"units" "Ohm*um^wr"
"description" "LDD resistance per unit width at high Vgs and zero Vbs for RDSMOD=1"
)
"rsw" FLOAT DOUBLE PROP(
"units" "Ohm*um^wr"
"description" "Zero bias LDD resistance per unit width for RDSMOD=1"
)
"rswmin" FLOAT DOUBLE PROP(
"units" "Ohm*um^wr"
"description" "LDD resistance per unit width at high Vgs and zero Vbs for RDSMOD=1"
)
"prwg" FLOAT DOUBLE PROP(
"units" "1/V"
"description" "Gate-effect coefficient for Rds"
)
"prwb" FLOAT DOUBLE PROP(
"units" "1/sqrt(V)"
"description" "Body-effect coefficient for Rds"
)
"wr" FLOAT DOUBLE PROP(
"description" "Width offset for parasitic resistance"
)
"alpha0" FLOAT DOUBLE PROP(
"units" "A*m/V"
"description" "Substrate current impact ionization coefficient"
)
"alpha1" FLOAT DOUBLE PROP(
"units" "A/V"
"description" "Substrate current impact ionization coefficient"
)
"beta0" FLOAT DOUBLE PROP(
"units" "1/V"
"description" "Substrate current impact ionization exponent"
)
"agidl" FLOAT DOUBLE PROP(
"units" "1/Ohm"
"description" "Pre-exponential coefficient for GIDL"
)
"bgidl" FLOAT DOUBLE PROP(
"units" "V/m"
"description" "Exponential coefficient for GIDL"
)
"cgidl" FLOAT DOUBLE PROP(
"units" "V^3"
"description" "Paramter for body-bias effect on GIDL"
)
"egidl" FLOAT DOUBLE PROP(
"units" "V"
"description" "Fitting parameter for band bending for GIDL"
)
"fgidl" FLOAT DOUBLE PROP(
"units" "V"
"description" "GIDL vb parameter"
)
"kgidl" FLOAT DOUBLE PROP(
"units" "V"
"description" "GIDL vb parameter"
)
"rgidl" FLOAT DOUBLE PROP(
"description" "GIDL vg parameter"
)
"agisl" FLOAT DOUBLE PROP(
"units" "1/Ohm"
"description" "Pre-exponential coefficient for GISL (bsim4.6)"
)
"bgisl" FLOAT DOUBLE PROP(
"units" "V/m"
"description" "Exponential coefficient for GISL (bsim4.6)"
)
"cgisl" FLOAT DOUBLE PROP(
"units" "V^3"
"description" "Paramter for body-bias effect on GISL (bsim4.6)"
)
"egisl" FLOAT DOUBLE PROP(
"units" "V"
"description" "Fitting parameter for band bending for GISL (bsim4.6)"
)
"fgisl" FLOAT DOUBLE PROP(
"units" "V"
"description" "GISL vb parameter"
)
"kgisl" FLOAT DOUBLE PROP(
"units" "V"
"description" "GISL vb parameter"
)
"rgisl" FLOAT DOUBLE PROP(
"description" "GISL vg parameter"
)
"aigbacc" FLOAT DOUBLE PROP(
"units" "sqrt(F/g)*s/m"
"description" "Parameter for Igb in accumulation"
)
"bigbacc" FLOAT DOUBLE PROP(
"units" "sqrt(F/g)*s/(m*V)"
"description" "Parameter for Igb in accumulation"
)
"cigbacc" FLOAT DOUBLE PROP(
"units" "1/V"
"description" "Parameter for Igb in accumulation"
)
"nigbacc" FLOAT DOUBLE PROP(
"description" "Parameter for Igb in accumulation"
)
"aigbinv" FLOAT DOUBLE PROP(
"units" "sqrt(F/g)*s/m"
"description" "Parameter for Igb in inversion"
)
"bigbinv" FLOAT DOUBLE PROP(
"units" "sqrt(F/g)*s/(m*V)"
"description" "Parameter for Igb in inversion"
)
"cigbinv" FLOAT DOUBLE PROP(
"units" "1/V"
"description" "Parameter for Igb in inversion"
)
"eigbinv" FLOAT DOUBLE PROP(
"units" "V"
"description" "Parameter for Igb in inversion"
)
"nigbinv" FLOAT DOUBLE PROP(
"description" "Parameter for Igb in inversion"
)
"aigc" FLOAT DOUBLE PROP(
"units" "sqrt(F/g)*s/m"
"description" "Parameter for Igcs and Igcd"
)
"bigc" FLOAT DOUBLE PROP(
"units" "sqrt(F/g)*s/(m*V)"
"description" "Parameter for Igcs and Igcd"
)
"cigc" FLOAT DOUBLE PROP(
"units" "1/V"
"description" "Parameter for Igcs and Igcd"
)
"aigsd" FLOAT DOUBLE PROP(
"units" "sqrt(F/g)*s/m"
"description" "Parameter for Igs and Igd"
)
"bigsd" FLOAT DOUBLE PROP(
"units" "sqrt(F/g)*s/(m*V)"
"description" "Parameter for Igs and Igd"
)
"cigsd" FLOAT DOUBLE PROP(
"units" "1/V"
"description" "Parameter for Igs and Igd"
)
"aigs" FLOAT DOUBLE PROP(
"units" "sqrt(F/g)*s/m"
"description" "Parameter for Igs (bsim4.6)"
)
"bigs" FLOAT DOUBLE PROP(
"units" "sqrt(F/g)*s/(m*V)"
"description" "Parameter for Igs (bsim4.6)"
)
"cigs" FLOAT DOUBLE PROP(
"units" "1/V"
"description" "Parameter for Igs (bsim4.6)"
)
"aigd" FLOAT DOUBLE PROP(
"units" "sqrt(F/g)*s/m"
"description" "Parameter for Igd (bsim4.6)"
)
"bigd" FLOAT DOUBLE PROP(
"units" "sqrt(F/g)*s/(m*V)"
"description" "Parameter for Igd (bsim4.6)"
)
"cigd" FLOAT DOUBLE PROP(
"units" "1/V"
"description" "Parameter for Igd (bsim4.6)"
)
"dlcig" FLOAT DOUBLE PROP(
"units" "m"
"description" "Source overlap length for Igs"
)
"dlcigd" FLOAT DOUBLE PROP(
"units" "m"
"description" "drain overlap length for Igd (bsim4.6)"
)
"nigc" FLOAT DOUBLE PROP(
"description" "Parameter for Igcs, Igcd ,Igs and Igd"
)
"poxedge" FLOAT DOUBLE PROP(
"description" "Factor for the gate oxide thickness in source/drain overlap regions"
)
"pigcd" FLOAT DOUBLE PROP(
"description" "Vds dependence of Igcs and Igcd"
)
"ntox" FLOAT DOUBLE PROP(
"description" "Exponent for the gate oxide ratio"
)
"toxref" FLOAT DOUBLE PROP(
"units" "m"
"description" "Nominal gate oxide thickness for gate dielectric tunneling current model only"
)
"vfbsdoff" FLOAT DOUBLE PROP(
"units" "V"
"description" "S/D flatband voltage offset"
)
"tvfbsdoff" FLOAT DOUBLE PROP(
"units" "V"
"description" "Temperature parameter for vfbsdoff"
)
"ltvfbsdoff" FLOAT DOUBLE PROP(
"units" "V"
"description" "Length dependence of tvfbsdoff"
)
"wtvfbsdoff" FLOAT DOUBLE PROP(
"units" "V"
"description" "Width dependence of tvfbsdoff"
)
"ptvfbsdoff" FLOAT DOUBLE PROP(
"units" "V"
"description" "Cross-term dependence of tvfbsdoff"
)
"cgso" FLOAT DOUBLE PROP(
"units" "F/m"
"description" "Non LDD region source-gate overlap capacitance per unit channel width"
)
"cgdo" FLOAT DOUBLE PROP(
"units" "F/m"
"description" "Non LDD region drain-gate overlap capacitance per unit channel width"
)
"cgbo" FLOAT DOUBLE PROP(
"units" "F/m"
"description" "Non LDD region drain-gate overlap capacitance per unit channel width"
)
"meto" FLOAT DOUBLE PROP(
"units" "m"
"description" "Metal overlap in fringing field"
)
"cgsl" FLOAT DOUBLE PROP(
"units" "F/m"
"description" "Overlap capacitance between gate and lightly-doped source region"
)
"cgdl" FLOAT DOUBLE PROP(
"units" "F/m"
"description" "Overlap capacitance between gate and lightly-doped drain region"
)
"ckappas" FLOAT DOUBLE PROP(
"units" "V"
"description" "Coefficient of bias-dependent overlap capacitance for the source side"
)
"ckappad" FLOAT DOUBLE PROP(
"units" "V"
"description" "Coefficient of bias-dependent overlap capacitance for the source side"
)
"xpart" FLOAT DOUBLE PROP(
"description" "Charge partition number. Use 0.0 for 40/60, 0.5 for 50/50, and 1.0 for 0/100"
)
"cf" FLOAT DOUBLE PROP(
"units" "F/m"
"description" "Fringing field capacitance (alias=lx91)"
)
"clc" FLOAT DOUBLE PROP(
"units" "m"
"description" "Constant term for the short channel model"
)
"cle" FLOAT DOUBLE PROP(
"description" "Exponential term for the short channel model"
)
"dlc" FLOAT DOUBLE PROP(
"units" "m"
"description" "Delta L for capacitance model"
)
"dwc" FLOAT DOUBLE PROP(
"units" "m"
"description" "Delta W for capacitance model"
)
"vfbcv" FLOAT DOUBLE PROP(
"description" "Flat-band voltage for capmod=0"
)
"noff" FLOAT DOUBLE PROP(
"description" "Transition parameter"
)
"voffcv" FLOAT DOUBLE PROP(
"units" "V"
"description" "CV parameter in VgsteffCV for weak to strong inversion"
)
"minvcv" FLOAT DOUBLE PROP(
"description" "Fitting parameter for moderate inversion condition"
)
"voffcvl" FLOAT DOUBLE PROP(
"units" "V*m"
"description" "Length dependence parameter for Vth offset in CV"
)
"acde" FLOAT DOUBLE PROP(
"units" "m/V"
"description" "Exponential coefficient for charge thickness in CAPMOD=2 for accumulation and depletion regions"
)
"moin" FLOAT DOUBLE PROP(
"description" "Exponential coefficient for charge thickness for accumulation and depletion regions"
)
"llc" FLOAT DOUBLE PROP(
"units" "m^lln"
"description" "Length dependence of delta L for CV"
)
"lwc" FLOAT DOUBLE PROP(
"units" "m^lwn"
"description" "Width dependence of delta L for CV"
)
"lwlc" FLOAT DOUBLE PROP(
"units" "m^(lln+lwn)"
"description" "Area dependence of delta L for CV"
)
"wlc" FLOAT DOUBLE PROP(
"units" "m^wln"
"description" "Length dependence of delta W for CV"
)
"wwc" FLOAT DOUBLE PROP(
"units" "m^wwn"
"description" "Width dependence of delta W for CV"
)
"wwlc" FLOAT DOUBLE PROP(
"units" "m^(wwn+wln)"
"description" "Area dependence of delta W for CV"
)
"dmcg" FLOAT DOUBLE PROP(
"units" "m"
"description" "Distance from S/D contact center to the gate edge"
)
"dmci" FLOAT DOUBLE PROP(
"units" "m"
"description" "Distance from S/D contact center to the isolation edge in the channel-length direction"
)
"dmdg" FLOAT DOUBLE PROP(
"units" "m"
"description" "Distance from S/D contact center to the gate edge"
)
"dmcgt" FLOAT DOUBLE PROP(
"units" "m"
"description" "DMCG of test structures"
)
"dwj" FLOAT DOUBLE PROP(
"units" "m"
"description" "Offset of the S/D junction width"
)
"xgw" FLOAT DOUBLE PROP(
"units" "m"
"description" "Distance from the gate contact to the channel edge"
)
"xgl" FLOAT DOUBLE PROP(
"units" "m"
"description" "Offset of gate length due to variations in patterning"
)
"xl" FLOAT DOUBLE PROP(
"units" "m"
"description" "Length variation due to masking and etching"
)
"xw" FLOAT DOUBLE PROP(
"units" "m"
"description" "Width variation due to masking and etching"
)
"ijthsrev" FLOAT DOUBLE PROP(
"units" "A"
"description" "Source diode limiting current in reverse bias region"
)
"ijthdrev" FLOAT DOUBLE PROP(
"units" "A"
"description" "Drain diode limiting current in reverse bias region"
)
"ijthsfwd" FLOAT DOUBLE PROP(
"units" "A"
"description" "Source diode limiting current in forward bias region"
)
"ijthdfwd" FLOAT DOUBLE PROP(
"units" "A"
"description" "Drain diode limiting current in forward bias region"
)
"xjbvs" FLOAT DOUBLE PROP(
"description" "Fitting parameter for bulk-source diode breakdown"
)
"xjbvd" FLOAT DOUBLE PROP(
"description" "Fitting parameter for bulk-drain diode breakdown"
)
"bv" FLOAT DOUBLE PROP(
"units" "V"
"description" "Diode breakdown voltage. Alias of bvs"
)
"bvs" FLOAT DOUBLE PROP(
"units" "V"
"description" "Source diode breakdown voltage"
)
"bvd" FLOAT DOUBLE PROP(
"units" "V"
"description" "Drain diode breakdown voltage"
)
"is" FLOAT DOUBLE PROP(
"units" "A"
"description" "Bulk junction reverse saturation current"
)
"js" FLOAT DOUBLE PROP(
"units" "A/m^2"
"description" "Bottom junction reverse saturation current density. Alias of jss"
)
"jss" FLOAT DOUBLE PROP(
"units" "A/m^2"
"description" "Source bottom junction reverse saturation current density"
)
"jsd" FLOAT DOUBLE PROP(
"units" "A/m^2"
"description" "Drain bottom junction reverse saturation current density"
)
"jsws" FLOAT DOUBLE PROP(
"units" "A/m"
"description" "Isolation-edge sidewall source junction reverse saturation current density"
)
"jswd" FLOAT DOUBLE PROP(
"units" "A/m"
"description" "Isolation-edge sidewall drain junction reverse saturation current density"
)
"jswgs" FLOAT DOUBLE PROP(
"units" "A/m"
"description" "Gate-edge sidewall source junction reverse saturation current density"
)
"jswgd" FLOAT DOUBLE PROP(
"units" "A/m"
"description" "Gate-edge sidewall drain junction reverse saturation current density"
)
"jtss" FLOAT DOUBLE PROP(
"units" "A/m^2"
"description" "Source bottom trap-assisted saturation current density"
)
"jtsd" FLOAT DOUBLE PROP(
"units" "A/m^2"
"description" "Drain bottom trap-assisted saturation current density"
)
"jtssws" FLOAT DOUBLE PROP(
"units" "A/m"
"description" "Source isolation-edge sidewall trap-assisted saturation current density"
)
"jtsswd" FLOAT DOUBLE PROP(
"units" "A/m"
"description" "Drain isolation-edge sidewall trap-assisted saturation current density"
)
"jtsswgs" FLOAT DOUBLE PROP(
"units" "A/m"
"description" "Source Gate-edge isolation-edge sidewall trap-assisted saturation current density"
)
"jtsswgd" FLOAT DOUBLE PROP(
"units" "A/m"
"description" "Drain isolation-edge sidewall trap-assisted saturation current density"
)
"njts" FLOAT DOUBLE PROP(
"description" "Non-ideality factor for jtss. For TSMC diode model, default=60.0"
)
"njtssw" FLOAT DOUBLE PROP(
"description" "Non-ideality factor for jtssws. For TSMC diode model, default=60.0"
)
"njtsswg" FLOAT DOUBLE PROP(
"description" "Non-ideality factor for jtsswgs. For TSMC diode model, default=60.0"
)
"njtsd" FLOAT DOUBLE PROP(
"description" "Non-ideality factor for jtsd (bsim4.6)"
)
"njtsswd" FLOAT DOUBLE PROP(
"description" "Non-ideality factor for jtsswd (bsim4.6)"
)
"njtsswgd" FLOAT DOUBLE PROP(
"description" "Non-ideality factor for jtsswgd (bsim4.6)"
)
"xtss" FLOAT DOUBLE PROP(
"description" "Power dependence of jtss on temperature"
)
"xtsd" FLOAT DOUBLE PROP(
"description" "Power dependence of jtsd on temperature"
)
"xtssws" FLOAT DOUBLE PROP(
"description" "Power dependence of jtssws on temperature"
)
"xtsswd" FLOAT DOUBLE PROP(
"description" "Power dependence of jtsswd on temperature"
)
"xtsswgs" FLOAT DOUBLE PROP(
"description" "Power dependence of jtsswgs on temperature"
)
"xtsswgd" FLOAT DOUBLE PROP(
"description" "Power dependence of jtsswgd on temperature"
)
"vtss" FLOAT DOUBLE PROP(
"units" "V"
"description" "Source bottom trap-assisted voltage dependent parameter"
)
"vtsd" FLOAT DOUBLE PROP(
"units" "V"
"description" "Drain bottom trap-assisted voltage dependent parameter"
)
"vtssws" FLOAT DOUBLE PROP(
"units" "V"
"description" "Source STI sidewall trap-assisted voltage dependent parameter"
)
"vtsswd" FLOAT DOUBLE PROP(
"units" "V"
"description" "Drain STI sidewall trap-assisted voltage dependent parameter"
)
"vtsswgs" FLOAT DOUBLE PROP(
"units" "V"
"description" "Source gate-edge sidewall trap-assisted voltage dependent parameter"
)
"vtsswgd" FLOAT DOUBLE PROP(
"units" "V"
"description" "Drain gate-edge sidewall trap-assisted voltage dependent parameter"
)
"tnjts" FLOAT DOUBLE PROP(
"description" "Temperature coefficient for njts"
)
"tnjtssw" FLOAT DOUBLE PROP(
"description" "Temperature coefficient for njtssw"
)
"tnjtsswg" FLOAT DOUBLE PROP(
"description" "Temperature coefficient for njtsswg"
)
"tnjtsd" FLOAT DOUBLE PROP(
"description" "Temperature coefficient for njtsd (bsim4.6)"
)
"tnjtsswd" FLOAT DOUBLE PROP(
"description" "Temperature coefficient for njtsswd (bsim4.6)"
)
"tnjtsswgd" FLOAT DOUBLE PROP(
"description" "Temperature coefficient for njtsswgd (bsim4.6)"
)
"imelt" FLOAT DOUBLE PROP(
"units" "A"
"description" "Explosion current"
)
"jmelt" FLOAT DOUBLE PROP(
"units" "A/m^2"
"description" "Explosion current density"
)
"jtweff" FLOAT DOUBLE PROP(
"units" "m"
"description" "TAT current width dependance"
)
"mnr" FLOAT DOUBLE PROP(
"description" "Fitting parameter for resistance induced non-ideality factor"
)
"bnr" FLOAT DOUBLE PROP(
"description" "Fitting parameter for resistance induced non-ideality factor"
)
"cnr" FLOAT DOUBLE PROP(
"units" "1/V*m"
"description" "Fitting parameter for resistance induced non-ideality factor"
)
"dnr" FLOAT DOUBLE PROP(
"units" "1/V"
"description" "Fitting parameter for resistance induced non-ideality factor"
)
"tmnr" FLOAT DOUBLE PROP(
"description" "Temperature coefficient for mnr"
)
"tcnr" FLOAT DOUBLE PROP(
"description" "Temperature coefficient for cnr"
)
"tdnr" FLOAT DOUBLE PROP(
"description" "Temperature coefficient for dnr"
)
"nrfwd" FLOAT DOUBLE PROP(
"units" "A/m^2"
"description" "Source bottom trap-assisted saturation current density"
)
"jsswg" FLOAT DOUBLE PROP(
"description" "Sidewall-gate junction reverse saturation current density"
)
"cj" FLOAT DOUBLE PROP(
"units" "F/m^2"
"description" "Zero bias bottom junction capacitance per unit area. Alias of cjs"
)
"cjs" FLOAT DOUBLE PROP(
"units" "F/m^2"
"description" "Zero bias source bottom junction capacitance per unit area"
)
"cjd" FLOAT DOUBLE PROP(
"units" "F/m^2"
"description" "Zero bias drain bottom junction capacitance per unit area"
)
"mj" FLOAT DOUBLE PROP(
"description" "Bottom junction capacitance grading coefficient. Alias of mjs"
)
"mjs" FLOAT DOUBLE PROP(
"description" "Source bottom junction capacitance grading coefficient"
)
"mjd" FLOAT DOUBLE PROP(
"description" "Drain bottom junction capacitance grading coefficient"
)
"pb" FLOAT DOUBLE PROP(
"units" "V"
"description" "Bottom junction built-in potential. Alias of pbs"
)
"pbs" FLOAT DOUBLE PROP(
"units" "V"
"description" "Source bottom junction built-in potential"
)
"pbd" FLOAT DOUBLE PROP(
"units" "V"
"description" "Drain bottom junction built-in potential"
)
"fc" FLOAT DOUBLE PROP(
"description" "Forward-bias depletion capacitance threshold"
)
"cjsw" FLOAT DOUBLE PROP(
"units" "F/m"
"description" "Sidewall junction capacitance per unit periphery. Alias of cjsws"
)
"cjsws" FLOAT DOUBLE PROP(
"units" "F/m"
"description" "Source sidewall junction capacitance per unit periphery"
)