HEADER
"PSFversion" "1.00"
"simulator" "spectre"
"version" "10.1.1.128.isr9"
"date" "7:26:28 PM, Fri May 15, 2015"
"design" "// Generated by PySpectre"
"analysis type" "info"
"analysis name" "outputParameter"
"analysis description" "Circuit Information"
"xVecSorted" "unsorted"
"tolerance.relative" 0.00100000
"ReferenceTemperature.Value" 27.0000
"ReferenceTemperature.Units" "C"
TYPE
"bsim4~instparams" STRUCT(
"weff" FLOAT DOUBLE PROP(
"units" "m"
"description" "Effective channel width (alias=lx62)"
)
"leff" FLOAT DOUBLE PROP(
"units" "m"
"description" "Effective channel length (alias=lx63)"
)
"weffcv" FLOAT DOUBLE PROP(
"units" "m"
"description" "Effective channel width for CV (alias=lx64)"
)
"leffcv" FLOAT DOUBLE PROP(
"units" "m"
"description" "Effective channel length for CV (alias=lx65)"
)
"vfbsd" FLOAT DOUBLE PROP(
"units" "V"
"description" "Flat band Voltage between the gate and Drain/source diffusions (alias=lx75)"
)
"rgbi" FLOAT DOUBLE PROP(
"units" "Ohm"
"description" "Gate bias-independent resistance"
)
"adeff" FLOAT DOUBLE PROP(
"units" "m^2"
"description" "Effective drain area"
)
"aseff" FLOAT DOUBLE PROP(
"units" "m^2"
"description" "Effective source area"
)
"pdeff" FLOAT DOUBLE PROP(
"units" "m"
"description" "Effective drain perimeter"
)
"pseff" FLOAT DOUBLE PROP(
"units" "m"
"description" "Effective source perimeter"
)
) PROP(
"key" "inst"
)
"capacitor~instparams" STRUCT(
"leff" FLOAT DOUBLE PROP(
"units" "m"
"description" "Effective capacitor length"
)
"weff" FLOAT DOUBLE PROP(
"units" "m"
"description" "Effective capacitor width"
)
"ceff" FLOAT DOUBLE PROP(
"units" "F"
"description" "Effective capacitance(alias=lv1)"
)
) PROP(
"key" "inst"
)
"resistor~instparams" STRUCT(
"leff" FLOAT DOUBLE PROP(
"units" "m"
"description" "Effective resistor length"
)
"weff" FLOAT DOUBLE PROP(
"units" "m"
"description" "Effective resistor width"
)
"reff" FLOAT DOUBLE PROP(
"units" "Ohm"
"description" "Effective resistance"
)
"ceff" FLOAT DOUBLE PROP(
"units" "F"
"description" "Effective capacitance"
)
) PROP(
"key" "inst"
)
VALUE
"M0" "bsim4~instparams" (
9.900000000000001e-07
9.900000000000001e-08
9.900000000000001e-07
9.900000000000001e-08
0.000000000000000e+00
7.407407407407408e-01
0.000000000000000e+00
0.000000000000000e+00
0.000000000000000e+00
1.000000000000000e-06
) PROP(
"model" "nmos"
)
"I0.C0" "capacitor~instparams" (
NaN
NaN
1.000000000000000e-12
) PROP(
"model" "capacitor"
)
"I1.I0.C0" "capacitor~instparams" (
NaN
NaN
2.100000000000000e-12
) PROP(
"model" "capacitor"
)
"I1.I3.C0" "capacitor~instparams" (
NaN
NaN
1.200000000000000e-12
) PROP(
"model" "capacitor"
)
"R0" "resistor~instparams" (
NaN
NaN
5.000000000000000e+01
NaN
) PROP(
"model" "resistor"
)
"I0.R0" "resistor~instparams" (
NaN
NaN
1.000000000000000e+03
NaN
) PROP(
"model" "resistor"
)
"I1.I0.R0" "resistor~instparams" (
NaN
NaN
7.100000000000000e+03
NaN
) PROP(
"model" "resistor"
)
"I1.I3.R0" "resistor~instparams" (
NaN
NaN
1.000000000000000e+03
NaN
) PROP(
"model" "resistor"
)
END
