HEADER
"PSFversion" "1.00"
"simulator" "spectre"
"version" "10.1.1.128.isr9"
"date" "7:26:28 PM, Fri May 15, 2015"
"design" "// Generated by PySpectre"
"analysis type" "info.primitives"
"analysis name" "primitives"
"analysis description" "Circuit Information"
"xVecSorted" "unsorted"
"tolerance.relative" 0.00100000
TYPE
"primitive" STRUCT(
"model" STRING *
"oppoint" STRING *
"output" STRING *
"inst" STRING *
"region" STRING *
"terminals" STRING *
) PROP(
"key" "prim"
)
VALUE
"bsim4" "primitive" (
"type level version binunit paramchk mobmod cvchargemod mtrlmod mtrlcompatmod rdsmod igcmod igbmod capmod rgatemod rbodymod trnqsmod acnqsmod fnoimod tnoimod diomod tempmod permod geomod stimod wpemod rgeomod flkmod fullreinit updatelevel eglev minr epsrox epsrgate epsrsub eot toxe toxp toxm dtox xj gamma1 gamma2 ndep nsub ngate nsd vbx xt rsh rshg lint wint wl wln ww wwn wwl ll lln lw lwn lwl dwg dwb lmlt wmlt vtho vfb vddeot phin k1 k2 k3 k3b w0 lpe0 lpeb vbm dvt0 dvt1 dvt2 dvtp0 dvtp1 dvtp2 dvtp3 dvtp4 dvtp5 dvt0w dvt1w dvt2w a0 ags b0 b1 keta a1 a2 phig ni0sub bg0sub tbgasub tbgbsub ados bdos tempeot leffeot weffeot vthmod ivth ivthw ivthl ivth_vdsmin acm hdif ldif rs rd ld trd trs u0 ua ub uc ud up lp eu vsat lambda vtl lc xn easub ucs ucste voff tvoff ltvoff wtvoff ptvoff voffl minv nfactor eta0 etab dsub cit cdsc cdscb cdscd pclm pdiblc1 pdiblc2 pdiblcb drout pscbe1 pscbe2 fprout pvag delta pdits pditsl pditsd rdsw rdswmin rdw rdwmin rsw rswmin prwg prwb wr alpha0 alpha1 beta0 gidlmod agidl bgidl cgidl egidl fgidl kgidl rgidl agisl bgisl cgisl egisl fgisl kgisl rgisl aigbacc bigbacc cigbacc nigbacc aigbinv bigbinv cigbinv eigbinv nigbinv aigc bigc cigc aigsd bigsd cigsd aigs bigs cigs aigd bigd cigd dlcig dlcigd nigc poxedge pigcd ntox toxref vfbsdoff tvfbsdoff ltvfbsdoff wtvfbsdoff ptvfbsdoff cgso cgdo cgbo meto cgsl cgdl ckappas ckappad xpart cf clc cle dlc dwc vfbcv noff voffcv minvcv voffcvl acde moin llc lwc lwlc wlc wwc wwlc dmcg dmci dmdg dmcgt dwj xgw xgl xl xw ngcon nf min ijthsrev ijthdrev ijthsfwd ijthdfwd xjbvs xjbvd bv bvs bvd is js jss jsd jsws jswd jswgs jswgd jtss jtsd jtssws jtsswd jtsswgs jtsswgd njts njtssw njtsswg njtsd njtsswd njtsswgd xtss xtsd xtssws xtsswd xtsswgs xtsswgd vtss vtsd vtssws vtsswd vtsswgs vtsswgd tnjts tnjtssw tnjtsswg tnjtsd tnjtsswd tnjtsswgd dskip imelt jmelt jtweff mnr bnr cnr dnr tmnr tcnr tdnr nrfwd jsswg cj cjs cjd mj mjs mjd pb pbs pbd fc cjsw cjsws cjswd mjsw mjsws mjswd pbsw pbsws pbswd cjswg cjswgs cjswgd mjswg mjswgs mjswgd pbswg pbswgs pbswgd fcsw tnom trise ute kt1 kt1l kt2 ua1 ub1 uc1 ud1 at prt tlev tlevc eg gap1 gap2 n njs njd xti xtis xtid pta tpb ptp tpbsw tpbswg cta tcj ctp tcjsw tcjswg tnfactor teta0 tvoffcv saref sbref sl lsl wsl psl sw lsw wsw psw sk0 lsk0 wsk0 psk0 sk1 lsk1 wsk1 psk1 sk2 lsk2 wsk2 psk2 k lk wk pk wlod ku0 kvsat tku0 llodku0 wlodku0 kvth0 llodvth wlodvth stk2 lodk2 steta0 lodeta0 web wec kvth0we k2we ku0we scref noia noib noic em af ef kf lintnoi wnoi ntnoi tnoia tnoib tnoic rnoia rnoib rnoic xrcrg1 xrcrg2 rbpb rbpbx0 rbpbxl rbpbxw rbpbxnf rbpby0 rbpbyl rbpbyw rbpbynf rbpd rbpd0 rbpdl rbpdw rbpdnf rbps rbps0 rbpsl rbpsw rbpsnf rbdb rbsb rbsbx0 rbsby0 rbdbx0 rbdby0 rbsdbxl rbsdbxw rbsdbxnf rbsdbyl rbsdbyw rbsdbynf gbmin w l as ad ps pd nrd nrs rdc rsc wmax wmin lmax lmin alarm imax jmax bvj vbox warn vds_max vgd_max vgs_max vbd_max vbs_max vgb_max lvtho lvth0 lvfb lk1 lk2 lk3 lk3b lw0 lgamma1 lgamma2 lvbx lvbm ldvt0 ldvt1 ldvt2 ldvt0w ldvt1w ldvt2w la0 lb0 lb1 la1 la2 lags lketa lnsub lngate lxj ldwg ldwb lxt lrdsw lprwb lprwg lwr lu0 lvsat lua lub luc lud lup llp ldrout lpclm lpdiblc1 lpdiblc2 lpdiblcb lpscbe1 lpscbe2 lpvag ldelta lcdsc lcdscb lcdscd lnfactor ltnfactor lcit lvoff ldsub leta0 lteta0 letab lalpha0 lalpha1 lbeta0 lcgsl lcgdl lclc lcle lcf lvfbcv lacde lmoin lnoff lvoffcv ltvoffcv lminvcv lkt1 lkt1l lkt2 lat lua1 lub1 luc1 lud1 lprt lute lndep lnsd lphin llpe0 llpeb ldvtp0 ldvtp1 ldvtp2 ldvtp3 ldvtp4 ldvtp5 leu lminv lfprout lpdits lpditsd lrdw lrsw lagidl lbgidl lcgidl legidl lfgidl lkgidl lrgidl lfgisl lkgisl lrgisl laigbacc lbigbacc lcigbacc lnigbacc laigbinv lbigbinv lcigbinv leigbinv lnigbinv laigc lbigc lcigc laigsd lbigsd lcigsd lnigc lpoxedge lpigcd lntox lckappas lckappad lxrcrg1 lxrcrg2 lvfbsdoff llambda lvtl lxn lkvth0we lk2we lku0we lku0 lkvth0 lucs lucste wvtho wvth0 wvfb wk1 wk2 wk3 wk3b ww0 wgamma1 wgamma2 wvbx wvbm wdvt0 wdvt1 wdvt2 wdvt0w wdvt1w wdvt2w wa0 wb0 wb1 wa1 wa2 wags wketa wnsub wngate wxj wdwg wdwb wxt wrdsw wprwb wprwg wwr wu0 wvsat wua wub wuc wud wup wlp wdrout wpclm wpdiblc1 wpdiblc2 wpdiblcb wpscbe1 wpscbe2 wpvag wdelta wcdsc wcdscb wcdscd wnfactor wtnfactor wcit wvoff wdsub weta0 wteta0 wetab walpha0 walpha1 wbeta0 wcgsl wcgdl wclc wcle wcf wvfbcv wacde wmoin wnoff wvoffcv wtvoffcv wminvcv wkt1 wkt1l wkt2 wat wua1 wub1 wuc1 wud1 wprt wute wndep wnsd wphin wlpe0 wlpeb wdvtp0 wdvtp1 wdvtp2 wdvtp3 wdvtp4 wdvtp5 weu wminv wfprout wpdits wpditsd wrdw wrsw wagidl wbgidl wcgidl wegidl wfgidl wkgidl wrgidl wfgisl wkgisl wrgisl waigbacc wbigbacc wcigbacc wnigbacc waigbinv wbigbinv wcigbinv weigbinv wnigbinv waigc wbigc wcigc waigsd wbigsd wcigsd wnigc wpoxedge wpigcd wntox wckappas wckappad wxrcrg1 wxrcrg2 wvfbsdoff wlambda wvtl wxn wkvth0we wk2we wku0we wku0 wkvth0 wucs wucste pvtho pvth0 pvfb pk1 pk2 pk3 pk3b pw0 pgamma1 pgamma2 pvbx pvbm pdvt0 pdvt1 pdvt2 pdvt0w pdvt1w pdvt2w pa0 pb0 pb1 pa1 pa2 pags pketa pnsub pngate pxj pdwg pdwb pxt prdsw pprwb pprwg pwr pu0 pvsat pua pub puc pud pup plp pdrout ppclm ppdiblc1 ppdiblc2 ppdiblcb ppscbe1 ppscbe2 ppvag pdelta pcdsc pcdscb pcdscd pnfactor ptnfactor pcit pvoff pdsub peta0 pteta0 petab palpha0 palpha1 pbeta0 pcgsl pcgdl pclc pcle pcf pvfbcv pacde pmoin pnoff pvoffcv ptvoffcv pminvcv pkt1 pkt1l pkt2 pat pua1 pub1 puc1 pud1 pprt pute pndep pnsd pphin plpe0 plpeb pdvtp0 pdvtp1 pdvtp2 pdvtp3 pdvtp4 pdvtp5 peu pminv pfprout ppdits ppditsd prdw prsw pagidl pbgidl pcgidl pegidl pfgidl pkgidl prgidl pfgisl pkgisl prgisl paigbacc pbigbacc pcigbacc pnigbacc paigbinv pbigbinv pcigbinv peigbinv pnigbinv paigc pbigc pcigc paigsd pbigsd pcigsd pnigc ppoxedge ppigcd pntox pckappas pckappad pxrcrg1 pxrcrg2 pvfbsdoff plambda pvtl pxn pkvth0we pk2we pku0we pku0 pkvth0 pucs pucste mvtwl mvtwl2 mvt0 mbewl mbe0 mismatchmod mismatchdist mos_method mos_vres compatible shrink shrink2 "
"region reversed ids vgs vds vbs vgd vdb vgb vth vdsat gm gds gmbs betaeff cjd cjs cgg cgd cgs cgb cdg cdd cds cdb csg csd css csb cbg cbd cbs cbb covlgs covlgd covlgb cggbo cgdbo cgsbo cbgbo cbdbo cbsbo cdgbo cddbo cdsbo ron id ibulk pwr gmoverid rdeff rseff rgbd igidl igisl igdt igd igs igb igbacc igbinv igcs igcd gbs gbd "
"weff leff weffcv leffcv vfbsd rgbi adeff aseff pdeff pseff "
"w l as ad ps pd nrd nrs rdc rsc sa sb sd sa1 sa2 sa3 sa4 sa5 sa6 sa7 sa8 sa9 sa10 sb1 sb2 sb3 sb4 sb5 sb6 sb7 sb8 sb9 sb10 sw1 sw2 sw3 sw4 sw5 sw6 sw7 sw8 sw9 sw10 isnoisy m trnqsmod acnqsmod trise dtemp deltox rgatemod rbodymod geomod stimod rgeomod rbpb rbpd rbps rbdb rbsb nf min delvto mulmu0 mulvsat mulu0 mulid0 delk1 delnfct deleta0 sca scb scc sc xgw ngcon "
"off triode sat subth breakdown "
"d g s b "
)
"capacitor" "primitive" (
"c trise tnom w l etch cj cjsw scalec rforce di thick coeffs min max tc1 tc2 shrink shrink2 bv_max "
"cap "
"leff weff ceff "
"c w l m scale trise tc1 tc2 ic area perim coeffs bv_max scalec "
""
"1 2 "
)
"isource" "primitive" (
""
"i v pwr "
""
"dc type fundname delay edgetype val0 val1 period rise fall width file offset scale stretch rms pwlfilter rolloff pwlbandwidth allbrkpts pwlperiod pwlperiodstart twidth sinedc ampl freq sinephase ampl2 freq2 sinephase2 fundname2 iqmodfiles fmmodindex fmmodfreq fmmodfiles ammodindex ammodoffset ammodfreq ammodphase damp freqvec amplvec phasevec maxharms td1 tau1 td2 tau2 data rptstart rpttimes ref jitter seed taps noisefile isnoisy mag phase xfmag pacmag pacphase m tc1 tc2 tnom "
""
"sink src ctl "
)
"port" "primitive" (
""
""
""
"dc type fundname delay edgetype val0 val1 period rise fall width file offset scale pwldbm stretch rms pwlfilter rolloff pwlbandwidth allbrkpts pwlperiod pwlperiodstart twidth sinedc ampl dbm freq sinephase ampl2 dbm2 freq2 sinephase2 fundname2 iqmodfiles fmmodindex fmmodfreq fmmodfiles ammodindex ammodoffset ammodfreq ammodphase damp freqvec amplvec dbmvec phasevec maxharms td1 tau1 td2 tau2 data rptstart rpttimes ref jitter seed taps noisefile noisetemp isnoisy r x lchock lchoke cblock num m mag phase xfmag pacmag pacdbm pacphase tc1 tc2 tnom "
""
"p n "
)
"resistor" "primitive" (
"r rsh thresh rthresh rac l w etch etchl scaler tc1 tc2 tnom trise coeffs nonlinform symmetric kf af wdexp ldexp weexp leexp fexp mr mrl mrlp mrw mrwp mrlw1 mrlw1p mrlw2 mrlw2p c cj cjsw thick di cratio tc1c tc2c shrink scalec dtemp cap dw dlr cox capsw res bv_max "
"v i res pwr "
"leff weff reff ceff "
"r l w m scale resform tc1 tc1r tc2 tc2r trise isnoisy bv_max c tc1c tc2c rac scaler scalec dtemp cap "
""
"1 2 0 "
)
"vsource" "primitive" (
""
"v i pwr "
""
"dc type fundname delay edgetype val0 val1 period rise fall width file offset scale stretch rms pwlfilter rolloff pwlbandwidth allbrkpts pwlperiod pwlperiodstart twidth sinedc ampl freq sinephase ampl2 freq2 sinephase2 fundname2 iqmodfiles fmmodindex fmmodfreq fmmodfiles ammodindex ammodoffset ammodfreq ammodphase damp freqvec amplvec phasevec maxharms td1 tau1 td2 tau2 data rptstart rpttimes ref jitter seed taps noisefile isnoisy mag phase xfmag pacmag pacphase m tc1 tc2 tnom "
""
"p n ctl "
)
END
