HEADER
"PSFversion" "1.00"
"simulator" "spectre"
"version" "10.1.1.128.isr9"
"date" "7:26:28 PM, Fri May 15, 2015"
"design" "// Generated by PySpectre"
"analysis type" "tran"
"analysis name" "tran"
"analysis description" "Transient Analysis `tran': time = (0 s -> 100 ns)"
"xVecSorted" "ascending"
"tolerance.relative" 0.00100000
"start" 0.00000
"outputstart" 0.00000
"stop" 1.00000e-07
"step" 1.00000e-10
"maxstep" 2.00000e-09
"ic" "all"
"useprevic" "no"
"skipdc" "no"
"reltol" 0.00100000
"abstol(V)" 1.00000e-06
"abstol(I)" 1.00000e-12
"temp" 27.0000
"tnom" 27.0000
"tempeffects" "all"
"errpreset" "moderate"
"method" "traponly"
"lteratio" 3.50000
"relref" "sigglobal"
"cmin" 0.00000
"gmin" 1.00000e-12
TYPE
"sweep" FLOAT DOUBLE PROP(
"key" "sweep"
)
"V" FLOAT DOUBLE PROP(
"units" "V"
"key" "node"
"tolerance" 1.00000e-06
)
"I" FLOAT DOUBLE PROP(
"units" "A"
"key" "branch"
"tolerance" 1.00000e-12
)
"MMF" FLOAT DOUBLE PROP(
"units" "A*turn"
"key" "node"
"tolerance" 1.00000e-12
)
"Wb" FLOAT DOUBLE PROP(
"units" "Wb"
"key" "node"
"tolerance" 1.00000e-09
)
"Temp" FLOAT DOUBLE PROP(
"units" "C"
"key" "node"
"tolerance" 0.000100000
)
"Pwr" FLOAT DOUBLE PROP(
"units" "W"
"key" "node"
"tolerance" 1.00000e-09
)
"U" FLOAT DOUBLE PROP(
"units" ""
"key" "node"
"tolerance" 1.00000e-06
)
"V/Sec" FLOAT DOUBLE PROP(
"units" "V/s"
"key" "node"
"tolerance" 0.000100000
)
"I/Sec" FLOAT DOUBLE PROP(
"units" "A/s"
"key" "node"
"tolerance" 1.00000e-06
)
"1/Sec" FLOAT DOUBLE PROP(
"units" "1/s"
"key" "node"
"tolerance" 0.000100000
)
"HOD" FLOAT DOUBLE PROP(
"units" ""
"key" "node"
"tolerance" 0.0100000
)
SWEEP
"time" "sweep" PROP(
"sweep_direction" 0
"units" "s"
"plot" 0
"grid" 1
)
TRACE
"gnd!" "V"
"PORT1:p" "I"
"V0:p" "I"
"VG" "V"
"VI" "V"
"VNOISE" "V"
"VO1" "V"
"VO2" "V"
"I1.net7" "V"
VALUE
"time" 0.000000000000000e+00
"gnd!" 0.000000000000000e+00
"PORT1:p" 0.000000000000000e+00
"V0:p" 0.000000000000000e+00
"VG" 5.647530031723104e-01
"VI" 0.000000000000000e+00
"VNOISE" 0.000000000000000e+00
"VO1" 0.000000000000000e+00
"VO2" 0.000000000000000e+00
"I1.net7" 0.000000000000000e+00
"time" 2.791288703093883e-11
"gnd!" 0.000000000000000e+00
"PORT1:p" -3.489682690430376e-03
"V0:p" -1.697640519831422e-04
"VG" 5.647308253253394e-01
"VI" 1.744841345215188e-01
"VNOISE" 1.744841345215188e-01
"VO1" 4.720082538376548e-03
"VO2" 1.979278948348687e-07
"I1.net7" 8.707025271203748e-06
"time" 5.247461573368009e-11
"gnd!" 0.000000000000000e+00
"PORT1:p" -6.475330381881644e-03
"V0:p" -3.114394893392196e-04
"VG" 5.647288414293262e-01
"VI" 3.237665190940822e-01
"VNOISE" 3.237665190940822e-01
"VO1" 1.232702975486256e-02
"VO2" 7.684180500205291e-07
"I1.net7" 2.864056803213426e-05
"time" 1.015980731391626e-10
"gnd!" 0.000000000000000e+00
"PORT1:p" -1.191757633270066e-02
"V0:p" -5.622509611688495e-04
"VG" 5.647284393016697e-01
"VI" 5.958788166350328e-01
"VNOISE" 5.958788166350328e-01
"VO1" 3.362785546618335e-02
"VO2" 3.370766201249888e-06
"I1.net7" 1.026402282477187e-04
"time" 1.533118736175922e-10
"gnd!" 0.000000000000000e+00
"PORT1:p" -1.642144498588051e-02
"V0:p" -7.537820191258777e-04
"VG" 5.647287590593498e-01
"VI" 8.210722492940253e-01
"VNOISE" 8.210722492940252e-01
"VO1" 6.729023016814764e-02
"VO2" 1.114264570256821e-05
"I1.net7" 2.725604785483819e-04
"time" 2.257134832155396e-10
"gnd!" 0.000000000000000e+00
"PORT1:p" -1.976759402046530e-02
"V0:p" -8.635166281672627e-04
"VG" 5.647284940512414e-01
"VI" 9.883797010232650e-01
"VNOISE" 9.883797010232650e-01
"VO1" 1.248630728560023e-01
"VO2" 3.956914651906752e-05
"I1.net7" 7.204453087715681e-04
"time" 2.958074884842118e-10
"gnd!" 0.000000000000000e+00
"PORT1:p" -1.917731685806154e-02
"V0:p" -7.779723059896699e-04
"VG" 5.647287207007129e-01
"VI" 9.588658429030770e-01
"VNOISE" 9.588658429030769e-01
"VO1" 1.808935369134071e-01
"VO2" 9.752504465598632e-05
"I1.net7" 1.401043339468017e-03
"time" 3.699281745074817e-10
"gnd!" 0.000000000000000e+00
"PORT1:p" -1.458554968825129e-02
"V0:p" -5.030158010154028e-04
"VG" 5.647285266106062e-01
"VI" 7.292774844125646e-01
"VNOISE" 7.292774844125646e-01
"VO1" 2.262616833971619e-01
"VO2" 2.038474208448416e-04
"I1.net7" 2.343007770064000e-03
"time" 4.428338102859230e-10
"gnd!" 0.000000000000000e+00
"PORT1:p" -7.030241500453790e-03
"V0:p" -1.054650237195192e-04
"VG" 5.647286934020753e-01
"VI" 3.515120750226895e-01
"VNOISE" 3.515120750226895e-01
"VO1" 2.460470513031703e-01
"VO2" 3.609629016958476e-04
"I1.net7" 3.393928822499823e-03
"time" 5.225363056264989e-10
"gnd!" 0.000000000000000e+00
"PORT1:p" 2.822541349909998e-03
"V0:p" 3.738364165744480e-04
"VG" 5.647285493925165e-01
"VI" -1.411270674954999e-01
"VNOISE" -1.411270674954999e-01
"VO1" 2.327093490789481e-01
"VO2" 5.921372819572578e-04
"I1.net7" 4.520289833750600e-03
"time" 6.058696389598322e-10
"gnd!" 0.000000000000000e+00
"PORT1:p" 1.234430741502027e-02
"V0:p" 7.986971471404024e-04
"VG" 5.647286749647379e-01
"VI" -6.172153707510136e-01
"VNOISE" -6.172153707510135e-01
"VO1" 1.814817763893888e-01
"VO2" 8.880019456810871e-04
"I1.net7" 5.480751709134022e-03
"time" 6.892029722931656e-10
"gnd!" 0.000000000000000e+00
"PORT1:p" 1.855842627715433e-02
"V0:p" 1.031537899962803e-03
"VG" 5.647285651110980e-01
"VI" -9.279213138577166e-01
"VNOISE" -9.279213138577167e-01
"VO1" 1.036165861050860e-01
"VO2" 1.215611629931713e-03
"I1.net7" 6.058020772896810e-03
"time" 7.725363056264989e-10
"gnd!" 0.000000000000000e+00
"PORT1:p" 1.979982980553238e-02
"V0:p" 1.007986026688270e-03
"VG" 5.647286612134761e-01
"VI" -9.899914902766188e-01
"VNOISE" -9.899914902766189e-01
"VO1" 1.799453641165108e-02
"VO2" 1.544554942622634e-03
"I1.net7" 6.175713205156045e-03
"time" 8.484140501005093e-10
"gnd!" 0.000000000000000e+00
"PORT1:p" 1.629667807192092e-02
"V0:p" 7.657649460807009e-04
"VG" 5.647285776547857e-01
"VI" -8.148339035960460e-01
"VNOISE" -8.148339035960460e-01
"VO1" -4.906895751534510e-02
"VO2" 1.820222178913751e-03
"I1.net7" 5.908371161013753e-03
"time" 9.217930954374999e-10
"gnd!" 0.000000000000000e+00
"PORT1:p" 9.437010601343686e-03
"V0:p" 3.814691884998852e-04
"VG" 5.647286496287153e-01
"VI" -4.718505300671842e-01
"VNOISE" -4.718505300671842e-01
"VO1" -9.038134156729902e-02
"VO2" 2.047926009902021e-03
"I1.net7" 5.407260050538517e-03
"time" 9.980616059422977e-10
"gnd!" 0.000000000000000e+00
"PORT1:p" 2.435797592494596e-04
"V0:p" -8.830218543975509e-05
"VG" 5.647285876349529e-01
"VI" -1.217898796247299e-02
"VNOISE" -1.217898796247299e-02
"VO1" -1.004811734022281e-01
"VO2" 2.235716354296050e-03
"I1.net7" 4.785725810243478e-03
"time" 1.081394939275631e-09
"gnd!" 0.000000000000000e+00
"PORT1:p" -9.788312074399884e-03
"V0:p" -5.617446649498080e-04
"VG" 5.647286415088901e-01
"VI" 4.894156037199942e-01
"VNOISE" 4.894156037199943e-01
"VO1" -7.232906122981367e-02
"VO2" 2.386911289627867e-03
"I1.net7" 4.191315971236739e-03
"time" 1.164728272608964e-09
"gnd!" 0.000000000000000e+00
"PORT1:p" -1.719743359244996e-02
"V0:p" -8.719221315105848e-04
"VG" 5.647285943789270e-01
"VI" 8.598716796224980e-01
"VNOISE" 8.598716796224979e-01
"VO1" -1.205045188808681e-02
"VO2" 2.497228110578217e-03
"I1.net7" 3.869947872339454e-03
"time" 1.248061605942297e-09
"gnd!" 0.000000000000000e+00
"PORT1:p" -1.999851666751522e-02
"V0:p" -9.368637565775428e-04
"VG" 5.647286356090375e-01
"VI" 9.999258333757609e-01
"VNOISE" 9.999258333757609e-01
"VO1" 6.306207679821807e-02
"VO2" 2.591598963250385e-03
"I1.net7" 3.936759758447600e-03
"time" 1.326236977283531e-09
"gnd!" 0.000000000000000e+00
"PORT1:p" -1.774902325841312e-02
"V0:p" -7.591056451240106e-04
"VG" 5.647285996885890e-01
"VI" 8.874511629206563e-01
"VNOISE" 8.874511629206564e-01
"VO1" 1.283455177966458e-01
"VO2" 2.689838755708920e-03
"I1.net7" 4.360659820979346e-03
"time" 1.399796489550998e-09
"gnd!" 0.000000000000000e+00
"PORT1:p" -1.177638513089867e-02
"V0:p" -4.186538689131734e-04
"VG" 5.647286307060204e-01
"VI" 5.888192565449337e-01
"VNOISE" 5.888192565449337e-01
"VO1" 1.701653876317604e-01
"VO2" 2.808409715657902e-03
"I1.net7" 5.006161117845418e-03
"time" 1.474657091842835e-09
"gnd!" 0.000000000000000e+00
"PORT1:p" -3.171242592847749e-03
"V0:p" 2.454913288498516e-05
"VG" 5.647286040185894e-01
"VI" 1.585621296423874e-01
"VNOISE" 1.585621296423874e-01
"VO1" 1.831112625273726e-01
"VO2" 2.964673349995588e-03
"I1.net7" 5.776669544393205e-03
"time" 1.557990425176169e-09
"gnd!" 0.000000000000000e+00
"PORT1:p" 7.127113369449711e-03
"V0:p" 5.150502043961595e-04
"VG" 5.647286271759833e-01
"VI" -3.563556684724856e-01
"VNOISE" -3.563556684724856e-01
"VO1" 1.586945359236739e-01
"VO2" 3.180161040496074e-03
"I1.net7" 6.574210332512478e-03
"time" 1.641323758509502e-09
"gnd!" 0.000000000000000e+00
"PORT1:p" 1.551576506003803e-02
"V0:p" 8.751249029528581e-04
"VG" 5.647286069176870e-01
"VI" -7.757882530019017e-01
"VNOISE" -7.757882530019018e-01
"VO1" 9.933664995095647e-02
"VO2" 3.426146148570349e-03
"I1.net7" 7.116467969093065e-03
"time" 1.724657091842835e-09
"gnd!" 0.000000000000000e+00
"PORT1:p" 1.974698003283814e-02
"V0:p" 1.007620409906859e-03
"VG" 5.647286246397683e-01
"VI" -9.873490016419071e-01
"VNOISE" -9.873490016419071e-01
"VO1" 2.027140826495176e-02
"VO2" 3.678840911239608e-03
"I1.net7" 7.266128255591538e-03
"time" 1.806478020731234e-09
"gnd!" 0.000000000000000e+00
"PORT1:p" 1.875388985036732e-02
"V0:p" 8.809939027690557e-04
"VG" 5.647286091543489e-01
"VI" -9.376944925183661e-01
"VNOISE" -9.376944925183662e-01
"VO1" -5.670058974931052e-02
"VO2" 3.906498646335495e-03
"I1.net7" 6.996947324454951e-03
"time" 1.880579329331243e-09
"gnd!" 0.000000000000000e+00
"PORT1:p" 1.363778212934363e-02
"V0:p" 5.722817556249299e-04
"VG" 5.647286225783745e-01
"VI" -6.818891064671817e-01
"VNOISE" -6.818891064671817e-01
"VO1" -1.096073508422517e-01
"VO2" 4.075352781772863e-03
"I1.net7" 6.453767376192593e-03
"time" 1.954812706893619e-09
"gnd!" 0.000000000000000e+00
"PORT1:p" 5.602419672172730e-03
"V0:p" 1.452241574668702e-04
"VG" 5.647286110284283e-01
"VI" -2.801209836086365e-01
"VNOISE" -2.801209836086365e-01
"VO1" -1.348968261417663e-01
"VO2" 4.196814905730623e-03
"I1.net7" 5.745327888513950e-03
"time" 2.035261482884481e-09
"gnd!" 0.000000000000000e+00
"PORT1:p" -4.394926484675972e-03
"V0:p" -3.450695261488893e-04
"VG" 5.647286210211470e-01
"VI" 2.197463242337986e-01
"VNOISE" 2.197463242337986e-01
"VO1" -1.253232019150907e-01
"VO2" 4.272158293387452e-03
"I1.net7" 4.971338058557572e-03
"time" 2.118594816217814e-09
"gnd!" 0.000000000000000e+00
"PORT1:p" -1.356168845879590e-02
"V0:p" -7.562694347173804e-04
"VG" 5.647286123020923e-01
"VI" 6.780844229397951e-01
"VNOISE" 6.780844229397952e-01
"VO1" -7.818501177758538e-02
"VO2" 4.298616246439147e-03
"I1.net7" 4.361425529157836e-03
"time" 2.201928149551148e-09
"gnd!" 0.000000000000000e+00
"PORT1:p" -1.909460696237896e-02
"V0:p" -9.608254537584384e-04
"VG" 5.647286199293422e-01
"VI" 9.547303481189479e-01
"VNOISE" 9.547303481189480e-01
"VO1" -6.095105639490474e-03
"VO2" 4.294218523053801e-03
"I1.net7" 4.104754806837147e-03
"time" 2.285261482884481e-09
"gnd!" 0.000000000000000e+00
"PORT1:p" -1.951114095060291e-02
"V0:p" -9.042731411355991e-04
"VG" 5.647286132572311e-01
"VI" 9.755570475301454e-01
"VNOISE" 9.755570475301454e-01
"VO1" 7.128390639454629e-02
"VO2" 4.286969884166556e-03
"I1.net7" 4.267672800430520e-03
"time" 2.360409951403519e-09
"gnd!" 0.000000000000000e+00
"PORT1:p" -1.537737622788215e-02
"V0:p" -6.405480944176114e-04
"VG" 5.647286190542229e-01
"VI" 7.688688113941077e-01
"VNOISE" 7.688688113941077e-01
"VO1" 1.283207169764963e-01
"VO2" 4.300152392471362e-03
"I1.net7" 4.740456325116394e-03
"time" 2.434126500803983e-09
"gnd!" 0.000000000000000e+00
"PORT1:p" -8.043576984352062e-03
"V0:p" -2.427427448270089e-04
"VG" 5.647286140635823e-01
"VI" 4.021788492176030e-01
"VNOISE" 4.021788492176030e-01
"VO1" 1.594361043905941e-01
"VO2" 4.346063733291780e-03
"I1.net7" 5.400501739399314e-03
"time" 2.511748104500851e-09
"gnd!" 0.000000000000000e+00
"PORT1:p" 1.474970047365352e-03
"V0:p" 2.319311290952653e-04
"VG" 5.647286183685026e-01
"VI" -7.374850236826760e-02
"VNOISE" -7.374850236826759e-02
"VO1" 1.581826267269976e-01
"VO2" 4.435492005909203e-03
"I1.net7" 6.146107078581036e-03
"time" 2.595081437834184e-09
"gnd!" 0.000000000000000e+00
"PORT1:p" 1.125013024568716e-02
"V0:p" 6.810980022120802e-04
"VG" 5.647286146226939e-01
"VI" -5.625065122843579e-01
"VNOISE" -5.625065122843579e-01
"VO1" 1.185914899277224e-01
"VO2" 4.572413292101703e-03
"I1.net7" 6.805131261773867e-03
"time" 2.678414771167517e-09
"gnd!" 0.000000000000000e+00
"PORT1:p" 1.801082712993215e-02
"V0:p" 9.502540087601427e-04
"VG" 5.647286178992178e-01
"VI" -9.005413564966074e-01
"VNOISE" -9.005413564966074e-01
"VO1" 4.971265226353529e-02
"VO2" 4.733643343522749e-03
"I1.net7" 7.144350854776696e-03
"time" 2.761748104500851e-09
"gnd!" 0.000000000000000e+00
"PORT1:p" 1.994553742969528e-02
"V0:p" 9.670699613779951e-04
"VG" 5.647286150332366e-01
"VI" -9.972768714847640e-01
"VNOISE" -9.972768714847640e-01
"VO1" -3.020691010676877e-02
"VO2" 4.892878764686358e-03
"I1.net7" 7.068151382944343e-03
"time" 2.838791761426446e-09
"gnd!" 0.000000000000000e+00
"PORT1:p" 1.696742663929201e-02
"V0:p" 7.526742014175041e-04
"VG" 5.647286175273042e-01
"VI" -8.483713319646006e-01
"VNOISE" -8.483713319646006e-01
"VO1" -9.569713054709639e-02
"VO2" 5.014808130879366e-03
"I1.net7" 6.637777840939550e-03
"time" 2.912300097522885e-09
"gnd!" 0.000000000000000e+00
"PORT1:p" 1.047138178119873e-02
"V0:p" 3.872417753529579e-04
"VG" 5.647286153766142e-01
"VI" -5.235690890599364e-01
"VNOISE" -5.235690890599364e-01
"VO1" -1.363273137069785e-01
"VO2" 5.092037611855699e-03
"I1.net7" 5.990560894100862e-03
"time" 2.988010204764987e-09
"gnd!" 0.000000000000000e+00
"PORT1:p" 1.505257382211208e-03
"V0:p" -7.144987937762330e-05
"VG" 5.647286172279805e-01
"VI" -7.526286911056039e-02
"VNOISE" -7.526286911056039e-02
"VO1" -1.467127484881837e-01
"VO2" 5.123595111703638e-03
"I1.net7" 5.225440239885660e-03
"time" 3.071343538098320e-09
"gnd!" 0.000000000000000e+00
"PORT1:p" -8.668046148244242e-03
"V0:p" -5.525003322747414e-04
"VG" 5.647286156204518e-01
"VI" 4.334023074122121e-01
"VNOISE" 4.334023074122121e-01
"VO1" -1.190980248625293e-01
"VO2" 5.104952142092872e-03
"I1.net7" 4.466189489120765e-03
"time" 3.154676871431653e-09
"gnd!" 0.000000000000000e+00
"PORT1:p" -1.651875371332207e-02
"V0:p" -8.840880959769045e-04
"VG" 5.647286170263529e-01
"VI" 8.259376856661030e-01
"VNOISE" 8.259376856661030e-01
"VO1" -5.815041031080129e-02
"VO2" 5.045802463242778e-03
"I1.net7" 3.981054365332156e-03
"time" 3.238010204764986e-09
"gnd!" 0.000000000000000e+00
"PORT1:p" -1.994327456094656e-02
"V0:p" -9.774769854196616e-04
"VG" 5.647286157968411e-01
"VI" 9.971637280473281e-01
"VNOISE" 9.971637280473282e-01
"VO1" 1.968674262766666e-02
"VO2" 4.971423610548582e-03
"I1.net7" 3.894060750866405e-03
"time" 3.317773618766965e-09
"gnd!" 0.000000000000000e+00
"PORT1:p" -1.821388911344589e-02
"V0:p" -8.199003474999166e-04
"VG" 5.647286168690298e-01
"VI" 9.106944556722947e-01
"VNOISE" 9.106944556722948e-01
"VO1" 9.079410817237805e-02
"VO2" 4.912016185523464e-03
"I1.net7" 4.201870049455452e-03
"time" 3.391512810143491e-09
"gnd!" 0.000000000000000e+00
"PORT1:p" -1.260142741810924e-02
"V0:p" -4.920479470853838e-04
"VG" 5.647286159420468e-01
"VI" 6.300713709054617e-01
"VNOISE" 6.300713709054617e-01
"VO1" 1.380234238200780e-01
"VO2" 4.886322508976400e-03
"I1.net7" 4.760212882513979e-03
"time" 3.466056459915818e-09
"gnd!" 0.000000000000000e+00
"PORT1:p" -4.233208251318989e-03
"V0:p" -5.475137056657931e-05
"VG" 5.647286167391066e-01
"VI" 2.116604125659494e-01
"VNOISE" 2.116604125659494e-01
"VO1" 1.569090419993701e-01
"VO2" 4.899930051632323e-03
"I1.net7" 5.464146780094159e-03
"time" 3.548563431061383e-09
"gnd!" 0.000000000000000e+00
"PORT1:p" 6.008401380443789e-03
"V0:p" 4.397912472697953e-04
"VG" 5.647286160485667e-01
"VI" -3.004200690221894e-01
"VNOISE" -3.004200690221894e-01
"VO1" 1.393711782476058e-01
"VO2" 4.962418058277268e-03
"I1.net7" 6.215880658793333e-03
"time" 3.631896764394717e-09
"gnd!" 0.000000000000000e+00
"PORT1:p" 1.474149817330353e-02
"V0:p" 8.226026038808556e-04
"VG" 5.647286166518262e-01
"VI" -7.370749086651764e-01
"VNOISE" -7.370749086651766e-01
"VO1" 8.552769521567910e-02
"VO2" 5.064460738681007e-03
"I1.net7" 6.749827333792613e-03
"time" 3.715230097728050e-09
"gnd!" 0.000000000000000e+00
"PORT1:p" 1.952462243540173e-02
"V0:p" 9.859248584193655e-04
"VG" 5.647286161244874e-01
"VI" -9.762311217700864e-01
"VNOISE" -9.762311217700864e-01
"VO1" 9.693736649279128e-03
"VO2" 5.182949094540099e-03
"I1.net7" 6.910047148170346e-03
"time" 3.798563431061384e-09
"gnd!" 0.000000000000000e+00
"PORT1:p" 1.907613988341144e-02
"V0:p" 8.859278973681218e-04
"VG" 5.647286165854092e-01
"VI" -9.538069941705722e-01
"VNOISE" -9.538069941705722e-01
"VO1" -6.787909680245049e-02
"VO2" 5.290079550051195e-03
"I1.net7" 6.648338615140524e-03
"time" 3.872976189740433e-09
"gnd!" 0.000000000000000e+00
"PORT1:p" 1.432081847079177e-02
"V0:p" 5.941545858812895e-04
"VG" 5.647286161856143e-01
"VI" -7.160409235395887e-01
"VNOISE" -7.160409235395887e-01
"VO1" -1.218863376582993e-01
"VO2" 5.355451894794241e-03
"I1.net7" 6.105616575423115e-03
"time" 3.947052092268145e-09
"gnd!" 0.000000000000000e+00
"PORT1:p" 6.531573758555871e-03
"V0:p" 1.775818772084102e-04
"VG" 5.647286165292208e-01
"VI" -3.265786879277935e-01
"VNOISE" -3.265786879277935e-01
"VO1" -1.489968107193833e-01
"VO2" 5.378968389137239e-03
"I1.net7" 5.390719318002031e-03
"time" 4.026217502289241e-09
"gnd!" 0.000000000000000e+00
"PORT1:p" -3.279708500141163e-03
"V0:p" -3.062114283460107e-04
"VG" 5.647286162327335e-01
"VI" 1.639854250070581e-01
"VNOISE" 1.639854250070581e-01
"VO1" -1.422260033389526e-01
"VO2" 5.354627791198084e-03
"I1.net7" 4.604960706294936e-03
"time" 4.109550835622574e-09
"gnd!" 0.000000000000000e+00
"PORT1:p" -1.270493849596355e-02
"V0:p" -7.327268870236854e-04
"VG" 5.647286164907127e-01
"VI" 6.352469247981772e-01
"VNOISE" 6.352469247981772e-01
"VO1" -9.747996222550816e-02
"VO2" 5.282417907279922e-03
"I1.net7" 3.952440335340012e-03
"time" 4.192884168955908e-09
"gnd!" 0.000000000000000e+00
"PORT1:p" -1.872589048190549e-02
"V0:p" -9.623755228699575e-04
"VG" 5.647286162654337e-01
"VI" 9.362945240952745e-01
"VNOISE" 9.362945240952744e-01
"VO1" -2.608099877468301e-02
"VO2" 5.182769080467896e-03
"I1.net7" 3.642860440221442e-03
"time" 4.276217502289241e-09
"gnd!" 0.000000000000000e+00
"PORT1:p" -1.972925523566721e-02
"V0:p" -9.336558861794466e-04
"VG" 5.647286164621053e-01
"VI" 9.864627617833606e-01
"VNOISE" 9.864627617833606e-01
"VO1" 5.280687560391408e-02
"VO2" 5.083142521088147e-03
"I1.net7" 3.753806251197809e-03
"time" 4.352012122872612e-09
"gnd!" 0.000000000000000e+00
"PORT1:p" -1.603042879941085e-02
"V0:p" -6.880992516964274e-04
"VG" 5.647286162915421e-01
"VI" 8.015214399705423e-01
"VNOISE" 8.015214399705423e-01
"VO1" 1.134221882741149e-01
"VO2" 5.015253210242957e-03
"I1.net7" 4.194907289307727e-03
"time" 4.425595492938034e-09
"gnd!" 0.000000000000000e+00
"PORT1:p" -9.013070927782323e-03
"V0:p" -3.021105575552819e-04
"VG" 5.647286164380239e-01
"VI" 4.506535463891161e-01
"VNOISE" 4.506535463891161e-01
"VO1" 1.485429888338343e-01
"VO2" 4.985518499427181e-03
"I1.net7" 4.836035151950050e-03
"time" 4.502382391394329e-09
"gnd!" 0.000000000000000e+00
"PORT1:p" 2.993689518122639e-04
"V0:p" 1.671242893561062e-04
"VG" 5.647286163122158e-01
"VI" -1.496844759061321e-02
"VNOISE" -1.496844759061321e-02
"VO1" 1.521558417654930e-01
"VO2" 4.999181937265057e-03
"I1.net7" 5.575720569825306e-03
"time" 4.585715724727662e-09
"gnd!" 0.000000000000000e+00
"PORT1:p" 1.025814078249998e-02
"V0:p" 6.303233618809909e-04
"VG" 5.647286164211794e-01
"VI" -5.129070391249988e-01
"VNOISE" -5.129070391249988e-01
"VO1" 1.174163227559920e-01
"VO2" 5.060862649056240e-03
"I1.net7" 6.260728516082057e-03
"time" 4.669049058060995e-09
"gnd!" 0.000000000000000e+00
"PORT1:p" 1.746825207467189e-02
"V0:p" 9.251028240492748e-04
"VG" 5.647286163262624e-01
"VI" -8.734126037335942e-01
"VNOISE" -8.734126037335941e-01
"VO1" 5.169022031568057e-02
"VO2" 5.154247952726025e-03
"I1.net7" 6.643878831390024e-03
"time" 4.752382391394328e-09
"gnd!" 0.000000000000000e+00
"PORT1:p" 1.999775933025225e-02
"V0:p" 9.724490339916873e-04
"VG" 5.647286164088908e-01
"VI" -9.998879665126124e-01
"VNOISE" -9.998879665126122e-01
"VO1" -2.743893252092515e-02
"VO2" 5.253353342743082e-03
"I1.net7" 6.617957696570293e-03
"time" 4.830383087105441e-09
"gnd!" 0.000000000000000e+00
"PORT1:p" 1.750289116091580e-02
"V0:p" 7.800989815928158e-04
"VG" 5.647286163373335e-01
"VI" -8.751445580457902e-01
"VNOISE" -8.751445580457902e-01
"VO1" -9.504557645297429e-02
"VO2" 5.326798296829270e-03
"I1.net7" 6.222018527896605e-03
"time" 4.903925553384801e-09
"gnd!" 0.000000000000000e+00
"PORT1:p" 1.135308208416526e-02
"V0:p" 4.294031129885029e-04
"VG" 5.647286163986678e-01
"VI" -5.676541042082628e-01
"VNOISE" -5.676541042082628e-01
"VO1" -1.382509912197599e-01
"VO2" 5.361468945463854e-03
"I1.net7" 5.597697806774203e-03
"time" 4.979084978156442e-09
"gnd!" 0.000000000000000e+00
"PORT1:p" 2.620700960138669e-03
"V0:p" -2.097304002657201e-05
"VG" 5.647286163463352e-01
"VI" -1.310350480069334e-01
"VNOISE" -1.310350480069334e-01
"VO1" -1.520080880335054e-01
"VO2" 5.352949214165840e-03
"I1.net7" 4.844667244714220e-03
"time" 5.062418311489776e-09
"gnd!" 0.000000000000000e+00
"PORT1:p" -7.644183756617242e-03
"V0:p" -5.103809554769441e-04
"VG" 5.647286163913307e-01
"VI" 3.822091878308621e-01
"VNOISE" 3.822091878308620e-01
"VO1" -1.281717676460822e-01
"VO2" 5.292877799200748e-03
"I1.net7" 4.071103017657722e-03
"time" 5.145751644823109e-09
"gnd!" 0.000000000000000e+00
"PORT1:p" -1.586081560899242e-02
"V0:p" -8.627908002524831e-04
"VG" 5.647286163523751e-01
"VI" 7.930407804496208e-01
"VNOISE" 7.930407804496208e-01
"VO1" -6.975001980286222e-02
"VO2" 5.193509468946103e-03
"I1.net7" 3.553476339155354e-03
"time" 5.229084978156442e-09
"gnd!" 0.000000000000000e+00
"PORT1:p" -1.982755472763921e-02
"V0:p" -9.837815326766510e-04
"VG" 5.647286163860472e-01
"VI" 9.913777363819606e-01
"VNOISE" 9.913777363819607e-01
"VO1" 7.596203705309400e-03
"VO2" 5.079149970964830e-03
"I1.net7" 3.425629558894923e-03
"time" 5.310155158535261e-09
"gnd!" 0.000000000000000e+00
"PORT1:p" -1.858834326456774e-02
"V0:p" -8.480353779480148e-04
"VG" 5.647286163570538e-01
"VI" 9.294171632283873e-01
"VNOISE" 9.294171632283874e-01
"VO1" 8.138178528037261e-02
"VO2" 4.980208989134556e-03
"I1.net7" 3.704682552127779e-03
"time" 5.384106842299732e-09
"gnd!" 0.000000000000000e+00
"PORT1:p" -1.331021919348057e-02
"V0:p" -5.340907307694418e-04
"VG" 5.647286163817322e-01
"VI" 6.655109596740284e-01
"VNOISE" 6.655109596740284e-01
"VO1" 1.314202289045866e-01
"VO2" 4.920163898892412e-03
"I1.net7" 4.247009667043619e-03
"time" 5.458403240397979e-09
"gnd!" 0.000000000000000e+00
"PORT1:p" -5.167894956300273e-03
"V0:p" -1.046887356727864e-04
"VG" 5.647286163609551e-01
"VI" 2.583947478150136e-01
"VNOISE" 2.583947478150136e-01
"VO1" 1.537060121422271e-01
"VO2" 4.900715005068386e-03
"I1.net7" 4.945610716013657e-03
"time" 5.539466208649164e-09
"gnd!" 0.000000000000000e+00
"PORT1:p" 4.908799076250691e-03
"V0:p" 3.861193959392568e-04
"VG" 5.647286163785046e-01
"VI" -2.454399538125345e-01
"VNOISE" -2.454399538125345e-01
"VO1" 1.406794421267223e-01
"VO2" 4.928334101576350e-03
"I1.net7" 5.701146316323124e-03
"time" 5.622799541982497e-09
"gnd!" 0.000000000000000e+00
"PORT1:p" 1.394526265616784e-02
"V0:p" 7.877452378991862e-04
"VG" 5.647286163635957e-01
"VI" -6.972631328083921e-01
"VNOISE" -6.972631328083921e-01
"VO1" 9.048210509079407e-02
"VO2" 4.999392770875968e-03
"I1.net7" 6.273070231958182e-03
"time" 5.706132875315830e-09
"gnd!" 0.000000000000000e+00
"PORT1:p" 1.924510436912485e-02
"V0:p" 9.785881119092938e-04
"VG" 5.647286163762311e-01
"VI" -9.622552184562424e-01
"VNOISE" -9.622552184562424e-01
"VO1" 1.633289345305144e-02
"VO2" 5.091920743055357e-03
"I1.net7" 6.483048880739500e-03
"time" 5.789466208649164e-09
"gnd!" 0.000000000000000e+00
"PORT1:p" 1.938823590812227e-02
"V0:p" 9.075000117266784e-04
"VG" 5.647286163655845e-01
"VI" -9.694117954061130e-01
"VNOISE" -9.694117954061130e-01
"VO1" -6.191178367943458e-02
"VO2" 5.178161103031221e-03
"I1.net7" 6.270755332651977e-03
"time" 5.864369393854026e-09
"gnd!" 0.000000000000000e+00
"PORT1:p" 1.505450869401659e-02
"V0:p" 6.340942812965530e-04
"VG" 5.647286163744062e-01
"VI" -7.527254347008295e-01
"VNOISE" -7.527254347008295e-01
"VO1" -1.186311534042766e-01
"VO2" 5.228781064889747e-03
"I1.net7" 5.758119308877303e-03
"time" 5.938189456240185e-09
"gnd!" 0.000000000000000e+00
"PORT1:p" 7.573552505653249e-03
"V0:p" 2.296148262921955e-04
"VG" 5.647286163672649e-01
"VI" -3.786776252826625e-01
"VNOISE" -3.786776252826625e-01
"VO1" -1.490627989904669e-01
"VO2" 5.239613696550644e-03
"I1.net7" 5.062460416186562e-03
"time" 6.016272646772995e-09
"gnd!" 0.000000000000000e+00
"PORT1:p" -2.041320151754742e-03
"V0:p" -2.487060444593378e-04
"VG" 5.647286163729834e-01
"VI" 1.020660075877371e-01
"VNOISE" 1.020660075877371e-01
"VO1" -1.466400368716007e-01
"VO2" 5.203923531901194e-03
"I1.net7" 4.284087888347181e-03
"time" 6.099605980106328e-09
"gnd!" 0.000000000000000e+00
"PORT1:p" -1.171561139332992e-02
"V0:p" -6.917081812046692e-04
"VG" 5.647286163684260e-01
"VI" 5.857805696664957e-01
"VNOISE" 5.857805696664957e-01
"VO1" -1.059276115381735e-01
"VO2" 5.119385918746278e-03
"I1.net7" 3.604538303438724e-03
"time" 6.182939313439661e-09
"gnd!" 0.000000000000000e+00
"PORT1:p" -1.825071402322558e-02
"V0:p" -9.492144102471384e-04
"VG" 5.647286163720053e-01
"VI" 9.125357011612790e-01
"VNOISE" 9.125357011612791e-01
"VO1" -3.667870908585938e-02
"VO2" 5.005878741060787e-03
"I1.net7" 3.251719639026225e-03
"time" 6.266272646772994e-09
"gnd!" 0.000000000000000e+00
"PORT1:p" -1.989555256930655e-02
"V0:p" -9.522255965363069e-04
"VG" 5.647286163692817e-01
"VI" 9.947776284653275e-01
"VNOISE" 9.947776284653275e-01
"VO1" 4.255203192902060e-02
"VO2" 4.890301094555378e-03
"I1.net7" 3.315823977234158e-03
"time" 6.342888096868968e-09
"gnd!" 0.000000000000000e+00
"PORT1:p" -1.668932188196163e-02
"V0:p" -7.283012894883572e-04
"VG" 5.647286163712284e-01
"VI" 8.344660940980814e-01
"VNOISE" 8.344660940980815e-01
"VO1" 1.061648046097242e-01
"VO2" 4.805643389651861e-03
"I1.net7" 3.728194668073409e-03
"time" 6.416396536654935e-09
"gnd!" 0.000000000000000e+00
"PORT1:p" -1.002938328075661e-02
"V0:p" -3.566838262789027e-04
"VG" 5.647286163699986e-01
"VI" 5.014691640378307e-01
"VNOISE" 5.014691640378306e-01
"VO1" 1.447853377589280e-01
"VO2" 4.760167818258359e-03
"I1.net7" 4.352870411879413e-03
"time" 6.492403910223914e-09
"gnd!" 0.000000000000000e+00
"PORT1:p" -9.541904343790149e-04
"V0:p" 1.050947769516793e-04
"VG" 5.647286163706062e-01
"VI" 4.770952171895073e-02
"VNOISE" 4.770952171895074e-02
"VO1" 1.528042986706300e-01
"VO2" 4.757750060087758e-03
"I1.net7" 5.088704615280365e-03
"time" 6.575737243557248e-09
"gnd!" 0.000000000000000e+00
"PORT1:p" 9.162259367735804e-03
"V0:p" 5.807861540862338e-04
"VG" 5.647286163705054e-01
"VI" -4.581129683867902e-01
"VNOISE" -4.581129683867902e-01
"VO1" 1.226731856994435e-01
"VO2" 4.803889131527328e-03
"I1.net7" 5.801739833794325e-03
"time" 6.659070576890581e-09
"gnd!" 0.000000000000000e+00
"PORT1:p" 1.682368917142136e-02
"V0:p" 9.011109567518371e-04
"VG" 5.647286163701867e-01
"VI" -8.411844585710680e-01
"VNOISE" -8.411844585710682e-01
"VO1" 5.992649818076903e-02
"VO2" 4.885293137745730e-03
"I1.net7" 6.231877814568723e-03
"time" 6.742403910223914e-09
"gnd!" 0.000000000000000e+00
"PORT1:p" 1.997722504791242e-02
"V0:p" 9.802295334459812e-04
"VG" 5.647286163708723e-01
"VI" -9.988612523956210e-01
"VNOISE" -9.988612523956210e-01
"VO1" -1.863171894963973e-02
"VO2" 4.976617779976675e-03
"I1.net7" 6.260182799404885e-03
"time" 6.821592494504802e-09
"gnd!" 0.000000000000000e+00
"PORT1:p" 1.801043015221327e-02
"V0:p" 8.116106956574901e-04
"VG" 5.647286163698582e-01
"VI" -9.005215076106633e-01
"VNOISE" -9.005215076106634e-01
"VO1" -8.891081195317324e-02
"VO2" 5.047173948030355e-03
"I1.net7" 5.901982847855309e-03
"time" 6.895256241155635e-09
"gnd!" 0.000000000000000e+00
"PORT1:p" 1.223268203675516e-02
"V0:p" 4.765001286596818e-04
"VG" 5.647286163711760e-01
"VI" -6.116341018377582e-01
"VNOISE" -6.116341018377582e-01
"VO1" -1.351339731780764e-01
"VO2" 5.080217128232753e-03
"I1.net7" 5.301970799432809e-03
"time" 6.969963797929877e-09
"gnd!" 0.000000000000000e+00
"PORT1:p" 3.752094900659060e-03
"V0:p" 3.493288237793943e-05
"VG" 5.647286163695870e-01
"VI" -1.876047450329530e-01
"VNOISE" -1.876047450329530e-01
"VO1" -1.526718626550136e-01
"VO2" 5.071247752058000e-03
"I1.net7" 4.561350501427859e-03
"time" 7.053268643115343e-09
"gnd!" 0.000000000000000e+00
"PORT1:p" -6.569655355426525e-03
"V0:p" -4.616548133053564e-04
"VG" 5.647286163713970e-01
"VI" 3.284827677713262e-01
"VNOISE" 3.284827677713262e-01
"VO1" -1.331720455340302e-01
"VO2" 5.010631106315188e-03
"I1.net7" 3.774171954039129e-03
"time" 7.136601976448676e-09
"gnd!" 0.000000000000000e+00
"PORT1:p" -1.513458806757765e-02
"V0:p" -8.346107456241386e-04
"VG" 5.647286163694069e-01
"VI" 7.567294033788824e-01
"VNOISE" 7.567294033788825e-01
"VO1" -7.788134224525613e-02
"VO2" 4.909145267918543e-03
"I1.net7" 3.222812274371258e-03
"time" 7.219935309782009e-09
"gnd!" 0.000000000000000e+00
"PORT1:p" -1.964422012924356e-02
"V0:p" -9.838210401984819e-04
"VG" 5.647286163715548e-01
"VI" 9.822110064621781e-01
"VNOISE" 9.822110064621781e-01
"VO1" -1.610033736303832e-03
"VO2" 4.790206478236692e-03
"I1.net7" 3.051102328946675e-03
"time" 7.302526738386727e-09
"gnd!" 0.000000000000000e+00
"PORT1:p" -1.892061853249807e-02
"V0:p" -8.714153471272276e-04
"VG" 5.647286163692677e-01
"VI" 9.460309266249038e-01
"VNOISE" 9.460309266249040e-01
"VO1" 7.461557949767625e-02
"VO2" 4.682678710968595e-03
"I1.net7" 3.297165138987108e-03
"time" 7.376759518906499e-09
"gnd!" 0.000000000000000e+00
"PORT1:p" -1.398492785023452e-02
"V0:p" -5.720714771586138e-04
"VG" 5.647286163716829e-01
"VI" 6.992463925117262e-01
"VNOISE" 6.992463925117260e-01
"VO1" 1.271749153531124e-01