HEADER
"PSFversion" "1.00"
"simulator" "spectre"
"version" "10.1.1.128.isr9"
"date" "4:20:13 PM, Fri May 15, 2015"
"design" "// Generated by PySpectre"
"analysis type" "dc"
"analysis name" "dcOp"
"analysis description" "DC Analysis `dcOp'"
"xVecSorted" "unsorted"
"tolerance.relative" 0.00100000
"reltol" 0.00100000
"abstol(V)" 1.00000e-06
"abstol(I)" 1.00000e-12
"temp" 27.0000
"tnom" 27.0000
"tempeffects" "all"
"gmindc" 1.00000e-12
TYPE
"V" FLOAT DOUBLE PROP(
"units" "V"
"key" "node"
"tolerance" 1.00000e-06
)
"I" FLOAT DOUBLE PROP(
"units" "A"
"key" "branch"
"tolerance" 1.00000e-12
)
"MMF" FLOAT DOUBLE PROP(
"units" "A*turn"
"key" "node"
"tolerance" 1.00000e-12
)
"Wb" FLOAT DOUBLE PROP(
"units" "Wb"
"key" "node"
"tolerance" 1.00000e-09
)
"Temp" FLOAT DOUBLE PROP(
"units" "C"
"key" "node"
"tolerance" 0.000100000
)
"Pwr" FLOAT DOUBLE PROP(
"units" "W"
"key" "node"
"tolerance" 1.00000e-09
)
"U" FLOAT DOUBLE PROP(
"units" ""
"key" "node"
"tolerance" 1.00000e-06
)
"V/Sec" FLOAT DOUBLE PROP(
"units" "V/s"
"key" "node"
"tolerance" 0.000100000
)
"I/Sec" FLOAT DOUBLE PROP(
"units" "A/s"
"key" "node"
"tolerance" 1.00000e-06
)
"1/Sec" FLOAT DOUBLE PROP(
"units" "1/s"
"key" "node"
"tolerance" 0.000100000
)
"HOD" FLOAT DOUBLE PROP(
"units" ""
"key" "node"
"tolerance" 0.0100000
)
"-enum" INT BYTE PROP(
"key" "inst"
)
"A" FLOAT DOUBLE PROP(
"key" "inst"
)
"S" FLOAT DOUBLE PROP(
"key" "inst"
)
"A/V^2" FLOAT DOUBLE PROP(
"key" "inst"
)
"F" FLOAT DOUBLE PROP(
"key" "inst"
)
"F/m" FLOAT DOUBLE PROP(
"key" "inst"
)
"Ohm" FLOAT DOUBLE PROP(
"key" "inst"
)
"W" FLOAT DOUBLE PROP(
"key" "inst"
)
"1/V" FLOAT DOUBLE PROP(
"key" "inst"
)
VALUE
"M0:region" "-enum" 2 PROP(
"units" "-"
)
"M0:reversed" "-enum" 0 PROP(
"units" "-"
)
"M0:ids" "A" 1.597099165857374e-04 PROP(
"units" "A"
)
"M0:vgs" "V" 1.000000000000000e+00 PROP(
"units" "V"
)
"M0:vds" "V" 1.000000000000000e+00 PROP(
"units" "V"
)
"M0:vbs" "V" 0.000000000000000e+00 PROP(
"units" "V"
)
"M0:vgd" "V" 0.000000000000000e+00 PROP(
"units" "V"
)
"M0:vdb" "V" 1.000000000000000e+00 PROP(
"units" "V"
)
"M0:vgb" "V" 1.000000000000000e+00 PROP(
"units" "V"
)
"M0:vth" "V" 4.194080649625861e-01 PROP(
"units" "V"
)
"M0:vdsat" "V" 3.554145785536292e-01 PROP(
"units" "V"
)
"M0:gm" "S" 2.652142334060080e-04 PROP(
"units" "S"
)
"M0:gds" "S" 3.006956036306183e-05 PROP(
"units" "S"
)
"M0:gmbs" "S" 3.236847700596331e-05 PROP(
"units" "S"
)
"M0:betaeff" "A/V^2" 2.458273245718734e-03 PROP(
"units" "A/V^2"
)
"M0:cjd" "F" 5.515932488326947e-17 PROP(
"units" "F"
)
"M0:cjs" "F" 8.279721198195849e-17 PROP(
"units" "F"
)
"M0:cgg" "F" 8.713578006081390e-17 PROP(
"units" "F"
)
"M0:cgd" "F" -2.085148278812680e-17 PROP(
"units" "F"
)
"M0:cgs" "F" -6.524779379293388e-17 PROP(
"units" "F"
)
"M0:cgb" "F" -1.036503479753201e-18 PROP(
"units" "F"
)
"M0:cdg" "F" -2.240376331746213e-17 PROP(
"units" "F"
)
"M0:cdd" "F" 2.240334925537663e-17 PROP(
"units" "F"
)
"M0:cds" "F" 4.411501012944319e-21 PROP(
"units" "F"
)
"M0:cdb" "F" -3.997438927436236e-21 PROP(
"units" "F"
)
"M0:csg" "F" -5.424579963000378e-17 PROP(
"units" "F"
)
"M0:csd" "F" -1.283688760131206e-18 PROP(
"units" "F"
)
"M0:css" "F" 5.872186692103073e-17 PROP(
"units" "F"
)
"M0:csb" "F" -3.192378530895740e-18 PROP(
"units" "F"
)
"M0:cbg" "F" -1.048621711334798e-17 PROP(
"units" "F"
)
"M0:cbd" "F" -2.681777071186191e-19 PROP(
"units" "F"
)
"M0:cbs" "F" 6.521515370890217e-18 PROP(
"units" "F"
)
"M0:cbb" "F" 4.232879449576378e-18 PROP(
"units" "F"
)
"M0:covlgs" "F/m" 2.276408444906256e-17 PROP(
"units" "F/m"
)
"M0:covlgd" "F/m" 2.236715166289136e-17 PROP(
"units" "F/m"
)
"M0:covlgb" "F/m" 0.000000000000000e+00 PROP(
"units" "F/m"
)
"M0:cggbo" "F" 4.200454394885996e-17 PROP(
"units" "F"
)
"M0:cgdbo" "F" 1.515668874764564e-18 PROP(
"units" "F"
)
"M0:cgsbo" "F" -4.248370934387133e-17 PROP(
"units" "F"
)
"M0:cbgbo" "F" -1.048621711334798e-17 PROP(
"units" "F"
)
"M0:cbdbo" "F" -2.681777071186191e-19 PROP(
"units" "F"
)
"M0:cbsbo" "F" 6.521515370890217e-18 PROP(
"units" "F"
)
"M0:cdgbo" "F" -3.661165457076936e-20 PROP(
"units" "F"
)
"M0:cddbo" "F" 3.619759248526127e-20 PROP(
"units" "F"
)
"M0:cdsbo" "F" 4.411501012944319e-21 PROP(
"units" "F"
)
"M0:ron" "Ohm" 6.255087499527190e+03 PROP(
"units" "Ohm"
)
"M0:id" "A" 1.597095560754423e-04 PROP(
"units" "A"
)
"M0:ibulk" "A" -6.734643724456498e-11 PROP(
"units" "A"
)
"M0:pwr" "W" 1.595497671432259e-04 PROP(
"units" "W"
)
"M0:gmoverid" "1/V" 1.660599661409456e+00 PROP(
"units" "1/V"
)
"M0:rdeff" "Ohm" 3.132220000000000e+00 PROP(
"units" "Ohm"
)
"M0:rseff" "Ohm" 3.132220000000000e+00 PROP(
"units" "Ohm"
)
"M0:rgbd" "Ohm" 0.000000000000000e+00 PROP(
"units" "Ohm"
)
"M0:igidl" "A" 0.000000000000000e+00 PROP(
"units" "A"
)
"M0:igisl" "A" 0.000000000000000e+00 PROP(
"units" "A"
)
"M0:igdt" "A" 1.274533324329937e-09 PROP(
"units" "A"
)
"M0:igd" "A" 1.675553849615528e-15 PROP(
"units" "A"
)
"M0:igs" "A" 2.775599961808114e-10 PROP(
"units" "A"
)
"M0:igb" "A" 1.086924467424616e-20 PROP(
"units" "A"
)
"M0:igbacc" "A" 1.086924467424616e-20 PROP(
"units" "A"
)
"M0:igbinv" "A" 4.673580897560914e-24 PROP(
"units" "A"
)
"M0:igcs" "A" 5.691257930570932e-10 PROP(
"units" "A"
)
"M0:igcd" "A" 4.278458595273132e-10 PROP(
"units" "A"
)
"M0:gbs" "S" 1.939584133002144e-11 PROP(
"units" "S"
)
"M0:gbd" "S" 1.564531754363128e-10 PROP(
"units" "S"
)
"M0:b" "I" -6.833365161427114e-11
"M0:d" "I" 1.597099558919048e-04
"M0:g" "I" 1.274486607458629e-09
"M0:s" "I" -1.597111620448606e-04
"V0:p" "I" -1.597112303785122e-04
"VG" "V" 1.000000000000000e+00
END
