HEADER
"PSFversion" "1.00"
"simulator" "spectre"
"version" "10.1.1.128.isr9"
"date" "4:20:13 PM, Fri May 15, 2015"
"design" "// Generated by PySpectre"
"analysis type" "info"
"analysis name" "designParamVals"
"analysis description" "Circuit Information"
"xVecSorted" "unsorted"
"tolerance.relative" 0.00100000
TYPE
"top-level" STRUCT(
"temp" FLOAT DOUBLE
"tnom" FLOAT DOUBLE
"time" FLOAT DOUBLE
"VGBIAS" FLOAT DOUBLE
"stretch1nrf" FLOAT DOUBLE
"stretch2nrf" FLOAT DOUBLE
"a1nrf_ms" FLOAT DOUBLE
"a2nrf_ms" FLOAT DOUBLE
"a3nrf_ms" FLOAT DOUBLE
"a4nrf_ms" FLOAT DOUBLE
"a5nrf_ms" FLOAT DOUBLE
"toxnrf_ms_global" FLOAT DOUBLE
"dxlnrf_ms_global" FLOAT DOUBLE
"dxwnrf_ms_global" FLOAT DOUBLE
"cjnrf_ms_global" FLOAT DOUBLE
"cjswnrf_ms_global" FLOAT DOUBLE
"cjswgnrf_ms_global" FLOAT DOUBLE
"cgonrf_ms_global" FLOAT DOUBLE
"cglnrf_ms_global" FLOAT DOUBLE
"cfnrf_ms_global" FLOAT DOUBLE
"dvthnrf_ms_global" FLOAT DOUBLE
"dlvthnrf_ms_global" FLOAT DOUBLE
"dwvthnrf_ms_global" FLOAT DOUBLE
"dpvthnrf_ms_global" FLOAT DOUBLE
"du0nrf_ms_global" FLOAT DOUBLE
"dlu0nrf_ms_global" FLOAT DOUBLE
"dwu0nrf_ms_global" FLOAT DOUBLE
"dpu0nrf_ms_global" FLOAT DOUBLE
"dvsatnrf_ms_global" FLOAT DOUBLE
"dwvsatnrf_ms_global" FLOAT DOUBLE
"dpvsatnrf_ms_global" FLOAT DOUBLE
"dlvoffnrf_ms_global" FLOAT DOUBLE
"dpvoffnrf_ms_global" FLOAT DOUBLE
"dagsnrf_ms_global" FLOAT DOUBLE
"dwagsnrf_ms_global" FLOAT DOUBLE
"dlcitnrf_ms_global" FLOAT DOUBLE
"dpcitnrf_ms_global" FLOAT DOUBLE
"dpclmnrf_ms_global" FLOAT DOUBLE
"dlpclmnrf_ms_global" FLOAT DOUBLE
"dppclmnrf_ms_global" FLOAT DOUBLE
"ntoxnrf_ms_global" FLOAT DOUBLE
"dlkt1nrf_ms_global" FLOAT DOUBLE
"dpkt1nrf_ms_global" FLOAT DOUBLE
"dpatnrf_ms_global" FLOAT DOUBLE
"ss_flagnrf_ms_global" FLOAT DOUBLE
"ff_flagnrf_ms_global" FLOAT DOUBLE
"monte_flagnrf_ms_global" FLOAT DOUBLE
"stretch1prf" FLOAT DOUBLE
"stretch2prf" FLOAT DOUBLE
"a1prf_ms" FLOAT DOUBLE
"a2prf_ms" FLOAT DOUBLE
"a3prf_ms" FLOAT DOUBLE
"a4prf_ms" FLOAT DOUBLE
"a5prf_ms" FLOAT DOUBLE
"toxprf_ms_global" FLOAT DOUBLE
"dxlprf_ms_global" FLOAT DOUBLE
"dxwprf_ms_global" FLOAT DOUBLE
"cjprf_ms_global" FLOAT DOUBLE
"cjswprf_ms_global" FLOAT DOUBLE
"cjswgprf_ms_global" FLOAT DOUBLE
"cgoprf_ms_global" FLOAT DOUBLE
"cglprf_ms_global" FLOAT DOUBLE
"dvthprf_ms_global" FLOAT DOUBLE
"dlvthprf_ms_global" FLOAT DOUBLE
"dwvthprf_ms_global" FLOAT DOUBLE
"dpvthprf_ms_global" FLOAT DOUBLE
"dlvoffprf_ms_global" FLOAT DOUBLE
"dpvoffprf_ms_global" FLOAT DOUBLE
"dlcitprf_ms_global" FLOAT DOUBLE
"dwcitprf_ms_global" FLOAT DOUBLE
"du0prf_ms_global" FLOAT DOUBLE
"dlu0prf_ms_global" FLOAT DOUBLE
"dwu0prf_ms_global" FLOAT DOUBLE
"dpu0prf_ms_global" FLOAT DOUBLE
"dlpclmprf_ms_global" FLOAT DOUBLE
"dvsatprf_ms_global" FLOAT DOUBLE
"dwvsatprf_ms_global" FLOAT DOUBLE
"cfprf_ms_global" FLOAT DOUBLE
"dpdiblc2prf_ms_global" FLOAT DOUBLE
"dagsprf_ms_global" FLOAT DOUBLE
"dwagsprf_ms_global" FLOAT DOUBLE
"datprf_ms_global" FLOAT DOUBLE
"dwatprf_ms_global" FLOAT DOUBLE
"dlub1prf_ms_global" FLOAT DOUBLE
"dpub1prf_ms_global" FLOAT DOUBLE
"ntoxprf_ms_global" FLOAT DOUBLE
"ss_flagprf_ms_global" FLOAT DOUBLE
"ff_flagprf_ms_global" FLOAT DOUBLE
"monte_flagprf_ms_global" FLOAT DOUBLE
"sf_flagnrf_ms_global" FLOAT DOUBLE
"fs_flagnrf_ms_global" FLOAT DOUBLE
"sf_flagprf_ms_global" FLOAT DOUBLE
"fs_flagprf_ms_global" FLOAT DOUBLE
"ccoflag_rf" FLOAT DOUBLE
"sigma_factor_rf" FLOAT DOUBLE
"iboffnrf_flag" FLOAT DOUBLE
"rcoflag_rf" FLOAT DOUBLE
"designflag_rf" FLOAT DOUBLE
"bidirectionflag_rf" FLOAT DOUBLE
"iboffprf_flag" FLOAT DOUBLE
"factor_mos_rf" FLOAT DOUBLE
"totalflag_mos_rf" FLOAT DOUBLE
"globalflag_mos_rf" FLOAT DOUBLE
"mismatchflag_mos_rf" FLOAT DOUBLE
"global_factor_rf" FLOAT DOUBLE
"local_factor_rf" FLOAT DOUBLE
"noiseflagnrf" FLOAT DOUBLE
"noiseflagprf" FLOAT DOUBLE
"noiseflagnrf_mc" FLOAT DOUBLE
"noiseflagprf_mc" FLOAT DOUBLE
"sigma_factor_flicker_rf" FLOAT DOUBLE
"toxnrf" FLOAT DOUBLE
"dxlnrf" FLOAT DOUBLE
"dxwnrf" FLOAT DOUBLE
"cjnrf" FLOAT DOUBLE
"cjswnrf" FLOAT DOUBLE
"cjswgnrf" FLOAT DOUBLE
"cgonrf" FLOAT DOUBLE
"cglnrf" FLOAT DOUBLE
"ddlcnrf" FLOAT DOUBLE
"cfnrf" FLOAT DOUBLE
"dvthnrf" FLOAT DOUBLE
"dlvthnrf" FLOAT DOUBLE
"dwvthnrf" FLOAT DOUBLE
"dpvthnrf" FLOAT DOUBLE
"du0nrf" FLOAT DOUBLE
"dlu0nrf" FLOAT DOUBLE
"dwu0nrf" FLOAT DOUBLE
"dpu0nrf" FLOAT DOUBLE
"dvsatnrf" FLOAT DOUBLE
"dlvsatnrf" FLOAT DOUBLE
"dwvsatnrf" FLOAT DOUBLE
"dpvsatnrf" FLOAT DOUBLE
"dk2nrf" FLOAT DOUBLE
"dlk2nrf" FLOAT DOUBLE
"drdswnrf" FLOAT DOUBLE
"dvoffnrf" FLOAT DOUBLE
"dlvoffnrf" FLOAT DOUBLE
"dwvoffnrf" FLOAT DOUBLE
"dpvoffnrf" FLOAT DOUBLE
"dpdiblc2nrf" FLOAT DOUBLE
"dlpdiblc2nrf" FLOAT DOUBLE
"dwpdiblc2nrf" FLOAT DOUBLE
"dppdiblc2nrf" FLOAT DOUBLE
"dagsnrf" FLOAT DOUBLE
"dlagsnrf" FLOAT DOUBLE
"dwagsnrf" FLOAT DOUBLE
"dpagsnrf" FLOAT DOUBLE
"dnfactornrf" FLOAT DOUBLE
"dlnfactornrf" FLOAT DOUBLE
"dwnfactornrf" FLOAT DOUBLE
"dpnfactornrf" FLOAT DOUBLE
"dcitnrf" FLOAT DOUBLE
"dlcitnrf" FLOAT DOUBLE
"dwcitnrf" FLOAT DOUBLE
"dpcitnrf" FLOAT DOUBLE
"deta0nrf" FLOAT DOUBLE
"dleta0nrf" FLOAT DOUBLE
"dweta0nrf" FLOAT DOUBLE
"dpeta0nrf" FLOAT DOUBLE
"dpclmnrf" FLOAT DOUBLE
"dlpclmnrf" FLOAT DOUBLE
"dwpclmnrf" FLOAT DOUBLE
"dppclmnrf" FLOAT DOUBLE
"ntoxnrf" FLOAT DOUBLE
"dlkt1nrf" FLOAT DOUBLE
"dpkt1nrf" FLOAT DOUBLE
"dlatnrf" FLOAT DOUBLE
"dpatnrf" FLOAT DOUBLE
"jtsswgnrf" FLOAT DOUBLE
"ss_flagnrf" FLOAT DOUBLE
"ff_flagnrf" FLOAT DOUBLE
"sf_flagnrf" FLOAT DOUBLE
"fs_flagnrf" FLOAT DOUBLE
"toxprf" FLOAT DOUBLE
"dxlprf" FLOAT DOUBLE
"dxwprf" FLOAT DOUBLE
"cjprf" FLOAT DOUBLE
"cjswprf" FLOAT DOUBLE
"cjswgprf" FLOAT DOUBLE
"cgoprf" FLOAT DOUBLE
"cglprf" FLOAT DOUBLE
"dlcprf" FLOAT DOUBLE
"dvthprf" FLOAT DOUBLE
"dlvthprf" FLOAT DOUBLE
"dwvthprf" FLOAT DOUBLE
"dpvthprf" FLOAT DOUBLE
"dk2prf" FLOAT DOUBLE
"dlk2prf" FLOAT DOUBLE
"dwk2prf" FLOAT DOUBLE
"dpk2prf" FLOAT DOUBLE
"deta0prf" FLOAT DOUBLE
"dleta0prf" FLOAT DOUBLE
"dweta0prf" FLOAT DOUBLE
"dpeta0prf" FLOAT DOUBLE
"dvoffprf" FLOAT DOUBLE
"dlvoffprf" FLOAT DOUBLE
"dwvoffprf" FLOAT DOUBLE
"dpvoffprf" FLOAT DOUBLE
"dcitprf" FLOAT DOUBLE
"dlcitprf" FLOAT DOUBLE
"dwcitprf" FLOAT DOUBLE
"dpcitprf" FLOAT DOUBLE
"dnfactorprf" FLOAT DOUBLE
"dlnfactorprf" FLOAT DOUBLE
"dwnfactorprf" FLOAT DOUBLE
"dpnfactorprf" FLOAT DOUBLE
"du0prf" FLOAT DOUBLE
"dlu0prf" FLOAT DOUBLE
"dwu0prf" FLOAT DOUBLE
"dpu0prf" FLOAT DOUBLE
"dubprf" FLOAT DOUBLE
"dlubprf" FLOAT DOUBLE
"dwubprf" FLOAT DOUBLE
"dpubprf" FLOAT DOUBLE
"dpclmprf" FLOAT DOUBLE
"dlpclmprf" FLOAT DOUBLE
"dwpclmprf" FLOAT DOUBLE
"dppclmprf" FLOAT DOUBLE
"dlpdiblc2prf" FLOAT DOUBLE
"dppdiblc2prf" FLOAT DOUBLE
"dvsatprf" FLOAT DOUBLE
"dlvsatprf" FLOAT DOUBLE
"dwvsatprf" FLOAT DOUBLE
"dpvsatprf" FLOAT DOUBLE
"dlkt1prf" FLOAT DOUBLE
"dpkt1prf" FLOAT DOUBLE
"jtsswgprf" FLOAT DOUBLE
"cfprf" FLOAT DOUBLE
"dpdiblc2prf" FLOAT DOUBLE
"da0prf" FLOAT DOUBLE
"dagsprf" FLOAT DOUBLE
"dwagsprf" FLOAT DOUBLE
"dlagsprf" FLOAT DOUBLE
"dpagsprf" FLOAT DOUBLE
"datprf" FLOAT DOUBLE
"dwatprf" FLOAT DOUBLE
"dlatprf" FLOAT DOUBLE
"dpatprf" FLOAT DOUBLE
"dub1prf" FLOAT DOUBLE
"dlub1prf" FLOAT DOUBLE
"dwub1prf" FLOAT DOUBLE
"dpub1prf" FLOAT DOUBLE
"ntoxprf" FLOAT DOUBLE
"ss_flagprf" FLOAT DOUBLE
"ff_flagprf" FLOAT DOUBLE
"sf_flagprf" FLOAT DOUBLE
"fs_flagprf" FLOAT DOUBLE
"is_d_dnw_nrf" FLOAT DOUBLE
"x_jsw_d_dnw_nrf" FLOAT DOUBLE
"n_d_dnw_nrf" FLOAT DOUBLE
"rs_d_dnw_nrf" FLOAT DOUBLE
"cj_d_dnw_nrf" FLOAT DOUBLE
"cjsw_d_dnw_nrf" FLOAT DOUBLE
"is_d_dnw_prf" FLOAT DOUBLE
"x_jsw_d_dnw_prf" FLOAT DOUBLE
"n_d_dnw_prf" FLOAT DOUBLE
"rs_d_dnw_prf" FLOAT DOUBLE
"cj_d_dnw_prf" FLOAT DOUBLE
"cjsw_d_dnw_prf" FLOAT DOUBLE
"is_d_prf" FLOAT DOUBLE
"x_jsw_d_prf" FLOAT DOUBLE
"n_d_prf" FLOAT DOUBLE
"rs_d_prf" FLOAT DOUBLE
"cj_d_prf" FLOAT DOUBLE
"cjsw_d_prf" FLOAT DOUBLE
"monte_flagnrf" FLOAT DOUBLE
"monte_flagprf" FLOAT DOUBLE
"a1nrf_18_ms" FLOAT DOUBLE
"a2nrf_18_ms" FLOAT DOUBLE
"a3nrf_18_ms" FLOAT DOUBLE
"a4nrf_18_ms" FLOAT DOUBLE
"a5nrf_18_ms" FLOAT DOUBLE
"a1prf_18_ms" FLOAT DOUBLE
"a2prf_18_ms" FLOAT DOUBLE
"a3prf_18_ms" FLOAT DOUBLE
"a4prf_18_ms" FLOAT DOUBLE
"a5prf_18_ms" FLOAT DOUBLE
"toxnrf_18_ms_global" FLOAT DOUBLE
"dxlnrf_18_ms_global" FLOAT DOUBLE
"dxwnrf_18_ms_global" FLOAT DOUBLE
"cjnrf_18_ms_global" FLOAT DOUBLE
"cjswnrf_18_ms_global" FLOAT DOUBLE
"cjswgnrf_18_ms_global" FLOAT DOUBLE
"cgonrf_18_ms_global" FLOAT DOUBLE
"cglnrf_18_ms_global" FLOAT DOUBLE
"dvthnrf_18_ms_global" FLOAT DOUBLE
"dlvthnrf_18_ms_global" FLOAT DOUBLE
"dwvthnrf_18_ms_global" FLOAT DOUBLE
"dpvthnrf_18_ms_global" FLOAT DOUBLE
"du0nrf_18_ms_global" FLOAT DOUBLE
"dlu0nrf_18_ms_global" FLOAT DOUBLE
"dwu0nrf_18_ms_global" FLOAT DOUBLE
"dpu0nrf_18_ms_global" FLOAT DOUBLE
"dvsatnrf_18_ms_global" FLOAT DOUBLE
"dwvsatnrf_18_ms_global" FLOAT DOUBLE
"dpvsatnrf_18_ms_global" FLOAT DOUBLE
"dwagsnrf_18_ms_global" FLOAT DOUBLE
"dcitnrf_18_ms_global" FLOAT DOUBLE
"dlcitnrf_18_ms_global" FLOAT DOUBLE
"dwcitnrf_18_ms_global" FLOAT DOUBLE
"dpcitnrf_18_ms_global" FLOAT DOUBLE
"cfnrf_18_ms_global" FLOAT DOUBLE
"ssn_flagrf_18_ms_global" FLOAT DOUBLE
"ffn_flagrf_18_ms_global" FLOAT DOUBLE
"sfn_flagrf_18_ms_global" FLOAT DOUBLE
"fsn_flagrf_18_ms_global" FLOAT DOUBLE
"toxprf_18_ms_global" FLOAT DOUBLE
"dxlprf_18_ms_global" FLOAT DOUBLE
"dxwprf_18_ms_global" FLOAT DOUBLE
"cjprf_18_ms_global" FLOAT DOUBLE
"cjswprf_18_ms_global" FLOAT DOUBLE
"cjswgprf_18_ms_global" FLOAT DOUBLE
"cgoprf_18_ms_global" FLOAT DOUBLE
"cglprf_18_ms_global" FLOAT DOUBLE
"cfprf_18_ms_global" FLOAT DOUBLE
"dvthprf_18_ms_global" FLOAT DOUBLE
"dlvthprf_18_ms_global" FLOAT DOUBLE
"dwvthprf_18_ms_global" FLOAT DOUBLE
"dpvthprf_18_ms_global" FLOAT DOUBLE
"du0prf_18_ms_global" FLOAT DOUBLE
"dlu0prf_18_ms_global" FLOAT DOUBLE
"dwu0prf_18_ms_global" FLOAT DOUBLE
"dpu0prf_18_ms_global" FLOAT DOUBLE
"dvsatprf_18_ms_global" FLOAT DOUBLE
"dwvsatprf_18_ms_global" FLOAT DOUBLE
"datprf_18_ms_global" FLOAT DOUBLE
"dwatprf_18_ms_global" FLOAT DOUBLE
"dleta0prf_18_ms_global" FLOAT DOUBLE
"dpeta0prf_18_ms_global" FLOAT DOUBLE
"dagsprf_18_ms_global" FLOAT DOUBLE
"dwagsprf_18_ms_global" FLOAT DOUBLE
"ssp_flagrf_18_ms_global" FLOAT DOUBLE
"ffp_flagrf_18_ms_global" FLOAT DOUBLE
"sfp_flagrf_18_ms_global" FLOAT DOUBLE
"fsp_flagrf_18_ms_global" FLOAT DOUBLE
"sigma_factor_rf_18" FLOAT DOUBLE
"rcoflag_rf_18" FLOAT DOUBLE
"ccoflag_rf_18" FLOAT DOUBLE
"totalflag_mos_rf_18" FLOAT DOUBLE
"globalflag_mos_rf_18" FLOAT DOUBLE
"mismatchflag_mos_rf_18" FLOAT DOUBLE
"factor_mos_rf_18" FLOAT DOUBLE
"noiseflagnrf_18" FLOAT DOUBLE
"noiseflagprf_18" FLOAT DOUBLE
"noiseflagnrf_18_mc" FLOAT DOUBLE
"noiseflagprf_18_mc" FLOAT DOUBLE
"global_factor_rf_18" FLOAT DOUBLE
"local_factor_rf_18" FLOAT DOUBLE
"sigma_factor_flicker_rf_18" FLOAT DOUBLE
"toxnrf_18" FLOAT DOUBLE
"dxlnrf_18" FLOAT DOUBLE
"dxwnrf_18" FLOAT DOUBLE
"cjnrf_18" FLOAT DOUBLE
"cjswnrf_18" FLOAT DOUBLE
"cjswgnrf_18" FLOAT DOUBLE
"cgonrf_18" FLOAT DOUBLE
"cglnrf_18" FLOAT DOUBLE
"ddlcnrf_18" FLOAT DOUBLE
"dvthnrf_18" FLOAT DOUBLE
"dlvthnrf_18" FLOAT DOUBLE
"dwvthnrf_18" FLOAT DOUBLE
"dpvthnrf_18" FLOAT DOUBLE
"du0nrf_18" FLOAT DOUBLE
"dlu0nrf_18" FLOAT DOUBLE
"dwu0nrf_18" FLOAT DOUBLE
"dpu0nrf_18" FLOAT DOUBLE
"dnfactornrf_18" FLOAT DOUBLE
"dlnfactornrf_18" FLOAT DOUBLE
"dwnfactornrf_18" FLOAT DOUBLE
"dpnfactornrf_18" FLOAT DOUBLE
"dvsatnrf_18" FLOAT DOUBLE
"dlvsatnrf_18" FLOAT DOUBLE
"dwvsatnrf_18" FLOAT DOUBLE
"dpvsatnrf_18" FLOAT DOUBLE
"dk2nrf_18" FLOAT DOUBLE
"dlk2nrf_18" FLOAT DOUBLE
"dwk2nrf_18" FLOAT DOUBLE
"dpk2nrf_18" FLOAT DOUBLE
"deta0nrf_18" FLOAT DOUBLE
"dleta0nrf_18" FLOAT DOUBLE
"dweta0nrf_18" FLOAT DOUBLE
"dpeta0nrf_18" FLOAT DOUBLE
"da0nrf_18" FLOAT DOUBLE
"dla0nrf_18" FLOAT DOUBLE
"dwa0nrf_18" FLOAT DOUBLE
"dpa0nrf_18" FLOAT DOUBLE
"dagsnrf_18" FLOAT DOUBLE
"dlagsnrf_18" FLOAT DOUBLE
"dwagsnrf_18" FLOAT DOUBLE
"dpagsnrf_18" FLOAT DOUBLE
"dcitnrf_18" FLOAT DOUBLE
"dlcitnrf_18" FLOAT DOUBLE
"dwcitnrf_18" FLOAT DOUBLE
"dpcitnrf_18" FLOAT DOUBLE
"dkt1nrf_18" FLOAT DOUBLE
"cfnrf_18" FLOAT DOUBLE
"dpdiblc2nrf_18" FLOAT DOUBLE
"dlpdiblc2nrf_18" FLOAT DOUBLE
"dwpdiblc2nrf_18" FLOAT DOUBLE
"dppdiblc2nrf_18" FLOAT DOUBLE
"datnrf_18" FLOAT DOUBLE
"ss_flagrf_18" FLOAT DOUBLE
"ff_flagrf_18" FLOAT DOUBLE
"sf_flagrf_18" FLOAT DOUBLE
"fs_flagrf_18" FLOAT DOUBLE
"toxprf_18" FLOAT DOUBLE
"dxlprf_18" FLOAT DOUBLE
"dxwprf_18" FLOAT DOUBLE
"cjprf_18" FLOAT DOUBLE
"cjswprf_18" FLOAT DOUBLE
"cjswgprf_18" FLOAT DOUBLE
"cgoprf_18" FLOAT DOUBLE
"cglprf_18" FLOAT DOUBLE
"ddlcprf_18" FLOAT DOUBLE
"cfprf_18" FLOAT DOUBLE
"dvthprf_18" FLOAT DOUBLE
"dlvthprf_18" FLOAT DOUBLE
"dwvthprf_18" FLOAT DOUBLE
"dpvthprf_18" FLOAT DOUBLE
"du0prf_18" FLOAT DOUBLE
"dlu0prf_18" FLOAT DOUBLE
"dwu0prf_18" FLOAT DOUBLE
"dpu0prf_18" FLOAT DOUBLE
"da0prf_18" FLOAT DOUBLE
"dla0prf_18" FLOAT DOUBLE
"dwa0prf_18" FLOAT DOUBLE
"dpa0prf_18" FLOAT DOUBLE
"dnfactorprf_18" FLOAT DOUBLE
"dlnfactorprf_18" FLOAT DOUBLE
"dwnfactorprf_18" FLOAT DOUBLE
"dpnfactorprf_18" FLOAT DOUBLE
"dvsatprf_18" FLOAT DOUBLE
"dlvsatprf_18" FLOAT DOUBLE
"dwvsatprf_18" FLOAT DOUBLE
"dpvsatprf_18" FLOAT DOUBLE
"datprf_18" FLOAT DOUBLE
"dlatprf_18" FLOAT DOUBLE
"dwatprf_18" FLOAT DOUBLE
"dpatprf_18" FLOAT DOUBLE
"deta0prf_18" FLOAT DOUBLE
"dleta0prf_18" FLOAT DOUBLE
"dweta0prf_18" FLOAT DOUBLE
"dpeta0prf_18" FLOAT DOUBLE
"dcitprf_18" FLOAT DOUBLE
"dlcitprf_18" FLOAT DOUBLE
"dwcitprf_18" FLOAT DOUBLE
"dpcitprf_18" FLOAT DOUBLE
"dagsprf_18" FLOAT DOUBLE
"dlagsprf_18" FLOAT DOUBLE
"dwagsprf_18" FLOAT DOUBLE
"dpagsprf_18" FLOAT DOUBLE
"is_d_dnw_nrf_18" FLOAT DOUBLE
"x_jsw_d_dnw_nrf_18" FLOAT DOUBLE
"n_d_dnw_nrf_18" FLOAT DOUBLE
"rs_d_dnw_nrf_18" FLOAT DOUBLE
"cj_d_dnw_nrf_18" FLOAT DOUBLE
"cjsw_d_dnw_nrf_18" FLOAT DOUBLE
"is_d_dnw_prf_18" FLOAT DOUBLE
"x_jsw_d_dnw_prf_18" FLOAT DOUBLE
"n_d_dnw_prf_18" FLOAT DOUBLE
"rs_d_dnw_prf_18" FLOAT DOUBLE
"cj_d_dnw_prf_18" FLOAT DOUBLE
"cjsw_d_dnw_prf_18" FLOAT DOUBLE
"is_d_prf_18" FLOAT DOUBLE
"x_jsw_d_prf_18" FLOAT DOUBLE
"n_d_prf_18" FLOAT DOUBLE
"rs_d_prf_18" FLOAT DOUBLE
"cj_d_prf_18" FLOAT DOUBLE
"cjsw_d_prf_18" FLOAT DOUBLE
"a1nrf_18ud15_ms" FLOAT DOUBLE
"a2nrf_18ud15_ms" FLOAT DOUBLE
"a3nrf_18ud15_ms" FLOAT DOUBLE
"a4nrf_18ud15_ms" FLOAT DOUBLE
"a5nrf_18ud15_ms" FLOAT DOUBLE
"a1prf_18ud15_ms" FLOAT DOUBLE
"a2prf_18ud15_ms" FLOAT DOUBLE
"a3prf_18ud15_ms" FLOAT DOUBLE
"a4prf_18ud15_ms" FLOAT DOUBLE
"a5prf_18ud15_ms" FLOAT DOUBLE
"toxnrf_18ud15_ms_global" FLOAT DOUBLE
"dxlnrf_18ud15_ms_global" FLOAT DOUBLE
"dxwnrf_18ud15_ms_global" FLOAT DOUBLE
"cjnrf_18ud15_ms_global" FLOAT DOUBLE
"cjswnrf_18ud15_ms_global" FLOAT DOUBLE
"cjswgnrf_18ud15_ms_global" FLOAT DOUBLE
"cgonrf_18ud15_ms_global" FLOAT DOUBLE
"cglnrf_18ud15_ms_global" FLOAT DOUBLE
"dvthnrf_18ud15_ms_global" FLOAT DOUBLE
"dlvthnrf_18ud15_ms_global" FLOAT DOUBLE
"dwvthnrf_18ud15_ms_global" FLOAT DOUBLE
"dpvthnrf_18ud15_ms_global" FLOAT DOUBLE
"du0nrf_18ud15_ms_global" FLOAT DOUBLE
"dlu0nrf_18ud15_ms_global" FLOAT DOUBLE
"dwu0nrf_18ud15_ms_global" FLOAT DOUBLE
"dpu0nrf_18ud15_ms_global" FLOAT DOUBLE
"dvsatnrf_18ud15_ms_global" FLOAT DOUBLE
"dwvsatnrf_18ud15_ms_global" FLOAT DOUBLE
"dpvsatnrf_18ud15_ms_global" FLOAT DOUBLE
"dwagsnrf_18ud15_ms_global" FLOAT DOUBLE
"dcitnrf_18ud15_ms_global" FLOAT DOUBLE
"dlcitnrf_18ud15_ms_global" FLOAT DOUBLE
"dwcitnrf_18ud15_ms_global" FLOAT DOUBLE
"dpcitnrf_18ud15_ms_global" FLOAT DOUBLE
"cfnrf_18ud15_ms_global" FLOAT DOUBLE
"ssn_flagrf_18ud15_ms_global" FLOAT DOUBLE
"ffn_flagrf_18ud15_ms_global" FLOAT DOUBLE
"sfn_flagrf_18ud15_ms_global" FLOAT DOUBLE
"fsn_flagrf_18ud15_ms_global" FLOAT DOUBLE
"toxprf_18ud15_ms_global" FLOAT DOUBLE
"dxlprf_18ud15_ms_global" FLOAT DOUBLE
"dxwprf_18ud15_ms_global" FLOAT DOUBLE
"cjprf_18ud15_ms_global" FLOAT DOUBLE
"cjswprf_18ud15_ms_global" FLOAT DOUBLE
"cjswgprf_18ud15_ms_global" FLOAT DOUBLE
"cgoprf_18ud15_ms_global" FLOAT DOUBLE
"cglprf_18ud15_ms_global" FLOAT DOUBLE
"cfprf_18ud15_ms_global" FLOAT DOUBLE
"dvthprf_18ud15_ms_global" FLOAT DOUBLE
"dlvthprf_18ud15_ms_global" FLOAT DOUBLE
"dwvthprf_18ud15_ms_global" FLOAT DOUBLE
"dpvthprf_18ud15_ms_global" FLOAT DOUBLE
"du0prf_18ud15_ms_global" FLOAT DOUBLE
"dlu0prf_18ud15_ms_global" FLOAT DOUBLE
"dwu0prf_18ud15_ms_global" FLOAT DOUBLE
"dpu0prf_18ud15_ms_global" FLOAT DOUBLE
"dvsatprf_18ud15_ms_global" FLOAT DOUBLE
"dwvsatprf_18ud15_ms_global" FLOAT DOUBLE
"datprf_18ud15_ms_global" FLOAT DOUBLE
"dwatprf_18ud15_ms_global" FLOAT DOUBLE
"dleta0prf_18ud15_ms_global" FLOAT DOUBLE
"dpeta0prf_18ud15_ms_global" FLOAT DOUBLE
"dagsprf_18ud15_ms_global" FLOAT DOUBLE
"dwagsprf_18ud15_ms_global" FLOAT DOUBLE
"ssp_flagrf_18ud15_ms_global" FLOAT DOUBLE
"ffp_flagrf_18ud15_ms_global" FLOAT DOUBLE
"sfp_flagrf_18ud15_ms_global" FLOAT DOUBLE
"fsp_flagrf_18ud15_ms_global" FLOAT DOUBLE
"sigma_factor_rf_18ud15" FLOAT DOUBLE
"rcoflag_rf_18ud15" FLOAT DOUBLE
"ccoflag_rf_18ud15" FLOAT DOUBLE
"totalflag_mos_rf_18ud15" FLOAT DOUBLE
"globalflag_mos_rf_18ud15" FLOAT DOUBLE
"mismatchflag_mos_rf_18ud15" FLOAT DOUBLE
"factor_mos_rf_18ud15" FLOAT DOUBLE
"noiseflagnrf_18ud15" FLOAT DOUBLE
"noiseflagprf_18ud15" FLOAT DOUBLE
"noiseflagnrf_18ud15_mc" FLOAT DOUBLE
"noiseflagprf_18ud15_mc" FLOAT DOUBLE
"local_factor_rf_18ud15" FLOAT DOUBLE
"global_factor_rf_18ud15" FLOAT DOUBLE
"sigma_factor_flicker_rf_18ud15" FLOAT DOUBLE
"toxnrf_18ud15" FLOAT DOUBLE
"dxlnrf_18ud15" FLOAT DOUBLE
"dxwnrf_18ud15" FLOAT DOUBLE
"cjnrf_18ud15" FLOAT DOUBLE
"cjswnrf_18ud15" FLOAT DOUBLE
"cjswgnrf_18ud15" FLOAT DOUBLE
"cgonrf_18ud15" FLOAT DOUBLE
"cglnrf_18ud15" FLOAT DOUBLE
"ddlcnrf_18ud15" FLOAT DOUBLE
"dvthnrf_18ud15" FLOAT DOUBLE
"dlvthnrf_18ud15" FLOAT DOUBLE
"dwvthnrf_18ud15" FLOAT DOUBLE
"dpvthnrf_18ud15" FLOAT DOUBLE
"du0nrf_18ud15" FLOAT DOUBLE
"dlu0nrf_18ud15" FLOAT DOUBLE
"dwu0nrf_18ud15" FLOAT DOUBLE
"dpu0nrf_18ud15" FLOAT DOUBLE
"dnfactornrf_18ud15" FLOAT DOUBLE
"dlnfactornrf_18ud15" FLOAT DOUBLE
"dwnfactornrf_18ud15" FLOAT DOUBLE
"dpnfactornrf_18ud15" FLOAT DOUBLE
"dvsatnrf_18ud15" FLOAT DOUBLE
"dlvsatnrf_18ud15" FLOAT DOUBLE
"dwvsatnrf_18ud15" FLOAT DOUBLE
"dpvsatnrf_18ud15" FLOAT DOUBLE
"dk2nrf_18ud15" FLOAT DOUBLE
"dlk2nrf_18ud15" FLOAT DOUBLE
"dwk2nrf_18ud15" FLOAT DOUBLE
"dpk2nrf_18ud15" FLOAT DOUBLE
"deta0nrf_18ud15" FLOAT DOUBLE
"dleta0nrf_18ud15" FLOAT DOUBLE
"dweta0nrf_18ud15" FLOAT DOUBLE
"dpeta0nrf_18ud15" FLOAT DOUBLE
"da0nrf_18ud15" FLOAT DOUBLE
"dla0nrf_18ud15" FLOAT DOUBLE
"dwa0nrf_18ud15" FLOAT DOUBLE
"dpa0nrf_18ud15" FLOAT DOUBLE
"dagsnrf_18ud15" FLOAT DOUBLE
"dlagsnrf_18ud15" FLOAT DOUBLE
"dwagsnrf_18ud15" FLOAT DOUBLE
"dpagsnrf_18ud15" FLOAT DOUBLE
"dcitnrf_18ud15" FLOAT DOUBLE
"dlcitnrf_18ud15" FLOAT DOUBLE
"dwcitnrf_18ud15" FLOAT DOUBLE
"dpcitnrf_18ud15" FLOAT DOUBLE
"dkt1nrf_18ud15" FLOAT DOUBLE
"cfnrf_18ud15" FLOAT DOUBLE
"dpdiblc2nrf_18ud15" FLOAT DOUBLE
"dlpdiblc2nrf_18ud15" FLOAT DOUBLE
"dwpdiblc2nrf_18ud15" FLOAT DOUBLE
"dppdiblc2nrf_18ud15" FLOAT DOUBLE
"datnrf_18ud15" FLOAT DOUBLE
"ss_flagrf_18ud15" FLOAT DOUBLE
"ff_flagrf_18ud15" FLOAT DOUBLE
"sf_flagrf_18ud15" FLOAT DOUBLE
"fs_flagrf_18ud15" FLOAT DOUBLE
"toxprf_18ud15" FLOAT DOUBLE
"dxlprf_18ud15" FLOAT DOUBLE
"dxwprf_18ud15" FLOAT DOUBLE
"cjprf_18ud15" FLOAT DOUBLE
"cjswprf_18ud15" FLOAT DOUBLE
"cjswgprf_18ud15" FLOAT DOUBLE
"cgoprf_18ud15" FLOAT DOUBLE
"cglprf_18ud15" FLOAT DOUBLE
"ddlcprf_18ud15" FLOAT DOUBLE
"cfprf_18ud15" FLOAT DOUBLE
"dvthprf_18ud15" FLOAT DOUBLE
"dlvthprf_18ud15" FLOAT DOUBLE
"dwvthprf_18ud15" FLOAT DOUBLE
"dpvthprf_18ud15" FLOAT DOUBLE
"du0prf_18ud15" FLOAT DOUBLE
"dlu0prf_18ud15" FLOAT DOUBLE
"dwu0prf_18ud15" FLOAT DOUBLE
"dpu0prf_18ud15" FLOAT DOUBLE
"da0prf_18ud15" FLOAT DOUBLE
"dla0prf_18ud15" FLOAT DOUBLE
"dwa0prf_18ud15" FLOAT DOUBLE
"dpa0prf_18ud15" FLOAT DOUBLE
"dnfactorprf_18ud15" FLOAT DOUBLE
"dlnfactorprf_18ud15" FLOAT DOUBLE
"dwnfactorprf_18ud15" FLOAT DOUBLE
"dpnfactorprf_18ud15" FLOAT DOUBLE
"dvsatprf_18ud15" FLOAT DOUBLE
"dlvsatprf_18ud15" FLOAT DOUBLE
"dwvsatprf_18ud15" FLOAT DOUBLE
"dpvsatprf_18ud15" FLOAT DOUBLE
"datprf_18ud15" FLOAT DOUBLE
"dlatprf_18ud15" FLOAT DOUBLE
"dwatprf_18ud15" FLOAT DOUBLE
"dpatprf_18ud15" FLOAT DOUBLE
"deta0prf_18ud15" FLOAT DOUBLE
"dleta0prf_18ud15" FLOAT DOUBLE
"dweta0prf_18ud15" FLOAT DOUBLE
"dpeta0prf_18ud15" FLOAT DOUBLE
"dcitprf_18ud15" FLOAT DOUBLE
"dlcitprf_18ud15" FLOAT DOUBLE
"dwcitprf_18ud15" FLOAT DOUBLE
"dpcitprf_18ud15" FLOAT DOUBLE
"dagsprf_18ud15" FLOAT DOUBLE
"dlagsprf_18ud15" FLOAT DOUBLE
"dwagsprf_18ud15" FLOAT DOUBLE
"dpagsprf_18ud15" FLOAT DOUBLE
"is_d_dnw_nrf_18ud15" FLOAT DOUBLE
"x_jsw_d_dnw_nrf_18ud15" FLOAT DOUBLE
"n_d_dnw_nrf_18ud15" FLOAT DOUBLE
"rs_d_dnw_nrf_18ud15" FLOAT DOUBLE
"cj_d_dnw_nrf_18ud15" FLOAT DOUBLE
"cjsw_d_dnw_nrf_18ud15" FLOAT DOUBLE
"is_d_dnw_prf_18ud15" FLOAT DOUBLE
"x_jsw_d_dnw_prf_18ud15" FLOAT DOUBLE
"n_d_dnw_prf_18ud15" FLOAT DOUBLE
"rs_d_dnw_prf_18ud15" FLOAT DOUBLE
"cj_d_dnw_prf_18ud15" FLOAT DOUBLE
"cjsw_d_dnw_prf_18ud15" FLOAT DOUBLE
"is_d_prf_18ud15" FLOAT DOUBLE
"x_jsw_d_prf_18ud15" FLOAT DOUBLE
"n_d_prf_18ud15" FLOAT DOUBLE
"rs_d_prf_18ud15" FLOAT DOUBLE
"cj_d_prf_18ud15" FLOAT DOUBLE
"cjsw_d_prf_18ud15" FLOAT DOUBLE
"factor_caprf" FLOAT DOUBLE
"toxm_varrf" FLOAT DOUBLE
"l_mvfacrf" FLOAT DOUBLE
"rm_mvfacrf" FLOAT DOUBLE
"rsub_mvfacrf" FLOAT DOUBLE
"csub_mvfacrf" FLOAT DOUBLE
"cgmin_varrf" FLOAT DOUBLE
"dcg_varrf" FLOAT DOUBLE
"dxl_varrf" FLOAT DOUBLE
"dxw_varrf" FLOAT DOUBLE
"fac_varrf" FLOAT DOUBLE
"l_pmvfacrf" FLOAT DOUBLE
"rm_pmvfacrf" FLOAT DOUBLE
"rsub_pmvfacrf" FLOAT DOUBLE
"csub_pmvfacrf" FLOAT DOUBLE
"cgmin_pvarrf" FLOAT DOUBLE
"dcg_pvarrf" FLOAT DOUBLE
"dxl_pvarrf" FLOAT DOUBLE
"dxw_pvarrf" FLOAT DOUBLE
"x_facp_varrf" FLOAT DOUBLE
"factor_caprf18" FLOAT DOUBLE
"l_mvfacrf18" FLOAT DOUBLE
"rm_mvfacrf18" FLOAT DOUBLE
"rsub_mvfacrf18" FLOAT DOUBLE
"csub_mvfacrf18" FLOAT DOUBLE
"cgmin_varrf18" FLOAT DOUBLE
"dcg_varrf18" FLOAT DOUBLE
"dxl_varrf18" FLOAT DOUBLE
"dxw_varrf18" FLOAT DOUBLE
"l_pmvfacrf18" FLOAT DOUBLE
"rm_pmvfacrf18" FLOAT DOUBLE
"rsub_pmvfacrf18" FLOAT DOUBLE
"csub_pmvfacrf18" FLOAT DOUBLE
"cgmin_pvarrf18" FLOAT DOUBLE
"dcg_pvarrf18" FLOAT DOUBLE
"dxl_pvarrf18" FLOAT DOUBLE
"dxw_pvarrf18" FLOAT DOUBLE
"r1" FLOAT DOUBLE
"r2" FLOAT DOUBLE
"r3" FLOAT DOUBLE
"r4" FLOAT DOUBLE
"r5" FLOAT DOUBLE
"par1" FLOAT DOUBLE
"par2" FLOAT DOUBLE
"par3" FLOAT DOUBLE
"par4" FLOAT DOUBLE
"par5" FLOAT DOUBLE
"r6" FLOAT DOUBLE
"r7" FLOAT DOUBLE
"r8" FLOAT DOUBLE
"r9" FLOAT DOUBLE
"r10" FLOAT DOUBLE
"par6" FLOAT DOUBLE
"par7" FLOAT DOUBLE
"par8" FLOAT DOUBLE
"par9" FLOAT DOUBLE
"par10" FLOAT DOUBLE
"r11" FLOAT DOUBLE
"r12" FLOAT DOUBLE
"r13" FLOAT DOUBLE
"r14" FLOAT DOUBLE
"r15" FLOAT DOUBLE
"par11" FLOAT DOUBLE
"par12" FLOAT DOUBLE
"par13" FLOAT DOUBLE
"par14" FLOAT DOUBLE
"par15" FLOAT DOUBLE
"r16" FLOAT DOUBLE
"r17" FLOAT DOUBLE
"r18" FLOAT DOUBLE
"r19" FLOAT DOUBLE
"r20" FLOAT DOUBLE
"par16" FLOAT DOUBLE
"par17" FLOAT DOUBLE
"par18" FLOAT DOUBLE
"par19" FLOAT DOUBLE
"par20" FLOAT DOUBLE
"r21" FLOAT DOUBLE
"r22" FLOAT DOUBLE
"r23" FLOAT DOUBLE
"r24" FLOAT DOUBLE
"r25" FLOAT DOUBLE
"par21" FLOAT DOUBLE
"par22" FLOAT DOUBLE
"par23" FLOAT DOUBLE
"par24" FLOAT DOUBLE
"par25" FLOAT DOUBLE
"r26" FLOAT DOUBLE
"r27" FLOAT DOUBLE
"r28" FLOAT DOUBLE
"r29" FLOAT DOUBLE
"r30" FLOAT DOUBLE
"par26" FLOAT DOUBLE
"par27" FLOAT DOUBLE
"par28" FLOAT DOUBLE
"par29" FLOAT DOUBLE
"par30" FLOAT DOUBLE
"r31" FLOAT DOUBLE
"r32" FLOAT DOUBLE
"par31" FLOAT DOUBLE
"par32" FLOAT DOUBLE
"r1_io" FLOAT DOUBLE
"r2_io" FLOAT DOUBLE
"r3_io" FLOAT DOUBLE
"r4_io" FLOAT DOUBLE
"r5_io" FLOAT DOUBLE
"par1_io" FLOAT DOUBLE
"par2_io" FLOAT DOUBLE
"par3_io" FLOAT DOUBLE
"par4_io" FLOAT DOUBLE
"par5_io" FLOAT DOUBLE
"r6_io" FLOAT DOUBLE
"r7_io" FLOAT DOUBLE
"r8_io" FLOAT DOUBLE
"r9_io" FLOAT DOUBLE
"r10_io" FLOAT DOUBLE
"par6_io" FLOAT DOUBLE
"par7_io" FLOAT DOUBLE
"par8_io" FLOAT DOUBLE
"par9_io" FLOAT DOUBLE
"par10_io" FLOAT DOUBLE
"r11_io" FLOAT DOUBLE
"r12_io" FLOAT DOUBLE
"r13_io" FLOAT DOUBLE
"r14_io" FLOAT DOUBLE
"r15_io" FLOAT DOUBLE
"par11_io" FLOAT DOUBLE
"par12_io" FLOAT DOUBLE
"par13_io" FLOAT DOUBLE
"par14_io" FLOAT DOUBLE
"par15_io" FLOAT DOUBLE
"r16_io" FLOAT DOUBLE
"r17_io" FLOAT DOUBLE
"r18_io" FLOAT DOUBLE
"r19_io" FLOAT DOUBLE
"r20_io" FLOAT DOUBLE
"par16_io" FLOAT DOUBLE
"par17_io" FLOAT DOUBLE
"par18_io" FLOAT DOUBLE
"par19_io" FLOAT DOUBLE
"par20_io" FLOAT DOUBLE
"plo_tox" FLOAT DOUBLE
"plo_dxl" FLOAT DOUBLE
"plo_dxw" FLOAT DOUBLE
"parl1" FLOAT DOUBLE
"parl2" FLOAT DOUBLE
"parl3" FLOAT DOUBLE
"parl4" FLOAT DOUBLE
"parl5" FLOAT DOUBLE
"r1_cap" FLOAT DOUBLE
"r2_cap" FLOAT DOUBLE
"par1_cap" FLOAT DOUBLE
"par2_cap" FLOAT DOUBLE
"w1_c" FLOAT DOUBLE
"w2_c" FLOAT DOUBLE
"w3_c" FLOAT DOUBLE
"w4_c" FLOAT DOUBLE
"w5_c" FLOAT DOUBLE
"w6_c" FLOAT DOUBLE
"w7_c" FLOAT DOUBLE
"w8_c" FLOAT DOUBLE
"w9_c" FLOAT DOUBLE
"w10_c" FLOAT DOUBLE
"w11_c" FLOAT DOUBLE
"w12_c" FLOAT DOUBLE
"w13_c" FLOAT DOUBLE
"w14_c" FLOAT DOUBLE
"w15_c" FLOAT DOUBLE
"w16_c" FLOAT DOUBLE
"w17_c" FLOAT DOUBLE
"w18_c" FLOAT DOUBLE
"w19_c" FLOAT DOUBLE
"w20_c" FLOAT DOUBLE
"w21_c" FLOAT DOUBLE
"w22_c" FLOAT DOUBLE
"w23_c" FLOAT DOUBLE
"w24_c" FLOAT DOUBLE
"w25_c" FLOAT DOUBLE
"w26_c" FLOAT DOUBLE
"w27_c" FLOAT DOUBLE
"w28_c" FLOAT DOUBLE
"w29_c" FLOAT DOUBLE
"w30_c" FLOAT DOUBLE
"w31_c" FLOAT DOUBLE
"w32_c" FLOAT DOUBLE
"w33_c" FLOAT DOUBLE
"w34_c" FLOAT DOUBLE
"w35_c" FLOAT DOUBLE
"w36_c" FLOAT DOUBLE
"w37_c" FLOAT DOUBLE
"w38_c" FLOAT DOUBLE
"w39_c" FLOAT DOUBLE
"w40_c" FLOAT DOUBLE
"w41_c" FLOAT DOUBLE
"w42_c" FLOAT DOUBLE
"w43_c" FLOAT DOUBLE
"w44_c" FLOAT DOUBLE
"w45_c" FLOAT DOUBLE
"w46_c" FLOAT DOUBLE
"w47_c" FLOAT DOUBLE
"w48_c" FLOAT DOUBLE
"w49_c" FLOAT DOUBLE
"w50_c" FLOAT DOUBLE
"w51_c" FLOAT DOUBLE
"w52_c" FLOAT DOUBLE
"w53_c" FLOAT DOUBLE
"w54_c" FLOAT DOUBLE
"w55_c" FLOAT DOUBLE
"w56_c" FLOAT DOUBLE
"w57_c" FLOAT DOUBLE
"w58_c" FLOAT DOUBLE
"w59_c" FLOAT DOUBLE
"w60_c" FLOAT DOUBLE
"w61_c" FLOAT DOUBLE
"w62_c" FLOAT DOUBLE
"w63_c" FLOAT DOUBLE
"w64_c" FLOAT DOUBLE
"w65_c" FLOAT DOUBLE
"w66_c" FLOAT DOUBLE
"w67_c" FLOAT DOUBLE
"w68_c" FLOAT DOUBLE
"w69_c" FLOAT DOUBLE
"w70_c" FLOAT DOUBLE
"w71_c" FLOAT DOUBLE
"w72_c" FLOAT DOUBLE
"w73_c" FLOAT DOUBLE
"w74_c" FLOAT DOUBLE
"w75_c" FLOAT DOUBLE
"w76_c" FLOAT DOUBLE
"w77_c" FLOAT DOUBLE
"w78_c" FLOAT DOUBLE
"w79_c" FLOAT DOUBLE
"w80_c" FLOAT DOUBLE
"w81_c" FLOAT DOUBLE
"w82_c" FLOAT DOUBLE
"w83_c" FLOAT DOUBLE
"w84_c" FLOAT DOUBLE
"w85_c" FLOAT DOUBLE
"w86_c" FLOAT DOUBLE
"w87_c" FLOAT DOUBLE
"w88_c" FLOAT DOUBLE
"w89_c" FLOAT DOUBLE
"w90_c" FLOAT DOUBLE
"w91_c" FLOAT DOUBLE
"w92_c" FLOAT DOUBLE
"w93_c" FLOAT DOUBLE
"w94_c" FLOAT DOUBLE
"w95_c" FLOAT DOUBLE
"w96_c" FLOAT DOUBLE
"w97_c" FLOAT DOUBLE
"w98_c" FLOAT DOUBLE
"w99_c" FLOAT DOUBLE
"w100_c" FLOAT DOUBLE
"w1_io" FLOAT DOUBLE
"w2_io" FLOAT DOUBLE
"w3_io" FLOAT DOUBLE
"w4_io" FLOAT DOUBLE
"w5_io" FLOAT DOUBLE
"w6_io" FLOAT DOUBLE
"w7_io" FLOAT DOUBLE
"w8_io" FLOAT DOUBLE
"w9_io" FLOAT DOUBLE
"w10_io" FLOAT DOUBLE
"w11_io" FLOAT DOUBLE
"w12_io" FLOAT DOUBLE
"w13_io" FLOAT DOUBLE
"w14_io" FLOAT DOUBLE
"w15_io" FLOAT DOUBLE
"w16_io" FLOAT DOUBLE
"w17_io" FLOAT DOUBLE
"w18_io" FLOAT DOUBLE
"w19_io" FLOAT DOUBLE
"w20_io" FLOAT DOUBLE
"w21_io" FLOAT DOUBLE
"w22_io" FLOAT DOUBLE
"w23_io" FLOAT DOUBLE
"w24_io" FLOAT DOUBLE
"w25_io" FLOAT DOUBLE
"w26_io" FLOAT DOUBLE
"w27_io" FLOAT DOUBLE
"w28_io" FLOAT DOUBLE
"w29_io" FLOAT DOUBLE
"w30_io" FLOAT DOUBLE
"w31_io" FLOAT DOUBLE
"w32_io" FLOAT DOUBLE
"w33_io" FLOAT DOUBLE
"w34_io" FLOAT DOUBLE
"w35_io" FLOAT DOUBLE
"w36_io" FLOAT DOUBLE
"p1_c1n" FLOAT DOUBLE
"p1_c1p" FLOAT DOUBLE
"p1_c2n" FLOAT DOUBLE
"p1_c2p" FLOAT DOUBLE
"p1_c3n" FLOAT DOUBLE
"p1_c3p" FLOAT DOUBLE
"p1_c4n" FLOAT DOUBLE
"p1_c4p" FLOAT DOUBLE
"p1_c5n" FLOAT DOUBLE
"p1_c5p" FLOAT DOUBLE
"p2_c1n" FLOAT DOUBLE
"p2_c1p" FLOAT DOUBLE
"p2_c2n" FLOAT DOUBLE
"p2_c2p" FLOAT DOUBLE
"p2_c3n" FLOAT DOUBLE
"p2_c3p" FLOAT DOUBLE
"p2_c4n" FLOAT DOUBLE
"p2_c4p" FLOAT DOUBLE
"p2_c5n" FLOAT DOUBLE
"p2_c5p" FLOAT DOUBLE
"p3_c1n" FLOAT DOUBLE
"p3_c1p" FLOAT DOUBLE
"p3_c2n" FLOAT DOUBLE
"p3_c2p" FLOAT DOUBLE
"p3_c3n" FLOAT DOUBLE
"p3_c3p" FLOAT DOUBLE
"p3_c4n" FLOAT DOUBLE
"p3_c4p" FLOAT DOUBLE
"p3_c5n" FLOAT DOUBLE
"p3_c5p" FLOAT DOUBLE
"p4_c1n" FLOAT DOUBLE
"p4_c1p" FLOAT DOUBLE
"p4_c2n" FLOAT DOUBLE
"p4_c2p" FLOAT DOUBLE
"p4_c3n" FLOAT DOUBLE
"p4_c3p" FLOAT DOUBLE
"p4_c4n" FLOAT DOUBLE
"p4_c4p" FLOAT DOUBLE
"p4_c5n" FLOAT DOUBLE
"p4_c5p" FLOAT DOUBLE
"p5_c1n" FLOAT DOUBLE
"p5_c1p" FLOAT DOUBLE
"p5_c2n" FLOAT DOUBLE
"p5_c2p" FLOAT DOUBLE
"p5_c3n" FLOAT DOUBLE
"p5_c3p" FLOAT DOUBLE
"p5_c4n" FLOAT DOUBLE
"p5_c4p" FLOAT DOUBLE
"p5_c5n" FLOAT DOUBLE
"p5_c5p" FLOAT DOUBLE
"p1_io1n" FLOAT DOUBLE
"p1_io1p" FLOAT DOUBLE
"p1_io2n" FLOAT DOUBLE
"p1_io2p" FLOAT DOUBLE
"p1_io3n" FLOAT DOUBLE
"p1_io3p" FLOAT DOUBLE
"p2_io1n" FLOAT DOUBLE
"p2_io1p" FLOAT DOUBLE
"p2_io2n" FLOAT DOUBLE
"p2_io2p" FLOAT DOUBLE
"p2_io3n" FLOAT DOUBLE
"p2_io3p" FLOAT DOUBLE
"p3_io1n" FLOAT DOUBLE
"p3_io1p" FLOAT DOUBLE
"p3_io2n" FLOAT DOUBLE
"p3_io2p" FLOAT DOUBLE
"p3_io3n" FLOAT DOUBLE
"p3_io3p" FLOAT DOUBLE
"p4_io1n" FLOAT DOUBLE
"p4_io1p" FLOAT DOUBLE
"p4_io2n" FLOAT DOUBLE
"p4_io2p" FLOAT DOUBLE
"p4_io3n" FLOAT DOUBLE
"p4_io3p" FLOAT DOUBLE
"p5_io1n" FLOAT DOUBLE
"p5_io1p" FLOAT DOUBLE
"p5_io2n" FLOAT DOUBLE
"p5_io2p" FLOAT DOUBLE
"p5_io3n" FLOAT DOUBLE
"p5_io3p" FLOAT DOUBLE
"fn_random" FLOAT DOUBLE
"par1fn_mc" FLOAT DOUBLE
"stretch1n" FLOAT DOUBLE
"stretch2n" FLOAT DOUBLE
"a1n_ms" FLOAT DOUBLE
"a2n_ms" FLOAT DOUBLE
"a3n_ms" FLOAT DOUBLE
"a4n_ms" FLOAT DOUBLE
"a5n_ms" FLOAT DOUBLE
"toxn_ms_global" FLOAT DOUBLE
"dxln_ms_global" FLOAT DOUBLE
"dxwn_ms_global" FLOAT DOUBLE
"cjn_ms_global" FLOAT DOUBLE
"cjswn_ms_global" FLOAT DOUBLE
"cjswgn_ms_global" FLOAT DOUBLE
"cgon_ms_global" FLOAT DOUBLE
"cgln_ms_global" FLOAT DOUBLE
"cfn_ms_global" FLOAT DOUBLE
"dvthn_ms_global" FLOAT DOUBLE
"dlvthn_ms_global" FLOAT DOUBLE
"dwvthn_ms_global" FLOAT DOUBLE
"dpvthn_ms_global" FLOAT DOUBLE
"du0n_ms_global" FLOAT DOUBLE
"dlu0n_ms_global" FLOAT DOUBLE
"dwu0n_ms_global" FLOAT DOUBLE
"dpu0n_ms_global" FLOAT DOUBLE
"dvsatn_ms_global" FLOAT DOUBLE
"dwvsatn_ms_global" FLOAT DOUBLE
"dpvsatn_ms_global" FLOAT DOUBLE
"dlvoffn_ms_global" FLOAT DOUBLE
"dpvoffn_ms_global" FLOAT DOUBLE
"dagsn_ms_global" FLOAT DOUBLE
"dwagsn_ms_global" FLOAT DOUBLE
"dlcitn_ms_global" FLOAT DOUBLE
"dpcitn_ms_global" FLOAT DOUBLE
"dpclmn_ms_global" FLOAT DOUBLE