HEADER
"PSFversion" "1.00"
"Log Generator" "drlLog rev. 1.0"
"Log Time Stamp" "Fri May 15 16:20:13 2015"
"simulator" "spectre"
"version" "10.1.1.128.isr9"
"date" "4:20:13 PM, Fri May 15, 2015"
"design" "// Generated by PySpectre"
"signalNameType" "spectre"
"measdgt" 0
"ingold" 2
"sst2usecolon" 0
TYPE
"analysisInst" STRUCT(
"analysisType" STRING *
"dataFile" STRING *
"format" STRING *
"parent" STRING *
"sweepVariable" ARRAY ( * ) STRING *
"description" STRING *
)
VALUE
"dcOp-dc" "analysisInst" (
"dc"
"dcOp.dc"
"PSF"
""
()
"DC Analysis `dcOp'"
) PROP(
"data_type" "scalar"
)

"dcOpInfo-info" "analysisInst" (
"info"
"dcOpInfo.info"
"PSF"
""
()
"Circuit Information"
) PROP(
"data_type" "struct"
)

"dc-dc" "analysisInst" (
"dc"
"dc.dc"
"PSF"
""
("VGBIAS")
"DC Analysis `dc': VGBIAS = (0 -> 1)"
) PROP(
"data_type" "scalar"
)

"modelParameter-info" "analysisInst" (
"info"
"modelParameter.info"
"PSF"
""
()
"Circuit Information"
) PROP(
"data_type" "struct"
)

"element-info" "analysisInst" (
"info"
"element.info"
"PSF"
""
()
"Circuit Information"
) PROP(
"data_type" "struct"
)

"outputParameter-info" "analysisInst" (
"info"
"outputParameter.info"
"PSF"
""
()
"Circuit Information"
) PROP(
"data_type" "struct"
)

"designParamVals-info" "analysisInst" (
"info"
"designParamVals.info"
"PSF"
""
()
"Circuit Information"
) PROP(
"data_type" "struct"
)

"primitives-info.primitives" "analysisInst" (
"info.primitives"
"primitives.info.primitives"
"PSF"
""
()
"Circuit Information"
)
END
