HEADER
"PSFversion" "1.00"
"simulator" "spectre"
"version" "10.1.1.128.isr9"
"date" "4:20:13 PM, Fri May 15, 2015"
"design" "// Generated by PySpectre"
"analysis type" "info"
"analysis name" "outputParameter"
"analysis description" "Circuit Information"
"xVecSorted" "unsorted"
"tolerance.relative" 0.00100000
"ReferenceTemperature.Value" 27.0000
"ReferenceTemperature.Units" "C"
TYPE
"bsim4~instparams" STRUCT(
"weff" FLOAT DOUBLE PROP(
"units" "m"
"description" "Effective channel width (alias=lx62)"
)
"leff" FLOAT DOUBLE PROP(
"units" "m"
"description" "Effective channel length (alias=lx63)"
)
"weffcv" FLOAT DOUBLE PROP(
"units" "m"
"description" "Effective channel width for CV (alias=lx64)"
)
"leffcv" FLOAT DOUBLE PROP(
"units" "m"
"description" "Effective channel length for CV (alias=lx65)"
)
"vfbsd" FLOAT DOUBLE PROP(
"units" "V"
"description" "Flat band Voltage between the gate and Drain/source diffusions (alias=lx75)"
)
"rgbi" FLOAT DOUBLE PROP(
"units" "Ohm"
"description" "Gate bias-independent resistance"
)
"adeff" FLOAT DOUBLE PROP(
"units" "m^2"
"description" "Effective drain area"
)
"aseff" FLOAT DOUBLE PROP(
"units" "m^2"
"description" "Effective source area"
)
"pdeff" FLOAT DOUBLE PROP(
"units" "m"
"description" "Effective drain perimeter"
)
"pseff" FLOAT DOUBLE PROP(
"units" "m"
"description" "Effective source perimeter"
)
) PROP(
"key" "inst"
)
VALUE
"M0" "bsim4~instparams" (
1.320000000000000e-07
3.200000000000000e-08
1.320000000000000e-07
2.071520000000000e-08
1.000275299218407e-02
0.000000000000000e+00
1.247400000000000e-14
1.247400000000000e-14
3.180000000000000e-07
3.180000000000000e-07
) PROP(
"model" "nch.28"
)
END
